ITEM: TIMESTEP
0
ITEM: NUMBER OF ATOMS
32000
ITEM: BOX BOUNDS pp pp pp
-3.5200000000000003e+01 3.5200000000000003e+01
-3.5200000000000003e+01 3.5200000000000003e+01
-3.5200000000000003e+01 3.5200000000000003e+01
ITEM: ATOMS id type element mass x y z c_csym c_potEnergy c_kinEnergy c_sigma[1] c_sigma[2] c_sigma[3] c_sigma[4] c_sigma[5] c_sigma[6]
1 1 Ni 58.71 -35.2 -35.2 -35.2 0 -4.45 0 -0.943434 -0.943434 -0.943434 -2.22347e-11 -1.11173e-11 -3.89107e-11
2 1 Ni 58.71 -33.44 -33.44 -35.2 0 -4.45 0 -0.943434 -0.943434 -0.943434 -1.85798e-09 -4.44693e-11 -0
3 1 Ni 58.71 -33.44 -35.2 -33.44 0 -4.45 0 -0.943434 -0.943434 -0.943434 -6.6704e-11 -1.85798e-09 -0
4 1 Ni 58.71 -35.2 -33.44 -33.44 0 -4.45 0 -0.943434 -0.943434 -0.943434 -2.22347e-11 4.44693e-11 -1.90245e-09
5 1 Ni 58.71 -31.68 -35.2 -35.2 0 -4.45 0 -0.943434 -0.943434 -0.943434 -3.3352e-11 -4.44693e-11 -4.44693e-11
6 1 Ni 58.71 -29.92 -33.44 -35.2 0 -4.45 0 -0.943434 -0.943434 -0.943434 2.65426e-10 2.22347e-11 -6.6704e-11
7 1 Ni 58.71 -29.92 -35.2 -33.44 0 -4.45 0 -0.943434 -0.943434 -0.943434 -3.3352e-11 2.20957e-10 -2.22347e-11
8 1 Ni 58.71 -31.68 -33.44 -33.44 0 -4.45 0 -0.943434 -0.943434 -0.943434 -2.05671e-10 -2.11229e-10 -1.90245e-09
9 1 Ni 58.71 -28.16 -35.2 -35.2 0 -4.45 0 -0.943434 -0.943434 -0.943434 -0 4.44693e-11 -0
10 1 Ni 58.71 -26.4 -33.44 -35.2 0 -4.45 0 -0.943434 -0.943434 -0.943434 -3.44637e-10 5.55867e-12 2.22347e-11
11 1 Ni 58.71 -26.4 -35.2 -33.44 0 -4.45 0 -0.943434 -0.943434 -0.943434 -4.44693e-11 -2.77933e-10 -0
12 1 Ni 58.71 -28.16 -33.44 -33.44 0 -4.45 0 -0.943434 -0.943434 -0.943434 1.80657e-11 3.19623e-11 -1.68983e-09
13 1 Ni 58.71 -24.64 -35.2 -35.2 0 -4.45 0 -0.943434 -0.943434 -0.943434 -0 -0 4.44693e-11
14 1 Ni 58.71 -22.88 -33.44 -35.2 2.01948e-28 -4.45 0 -0.943434 -0.943434 -0.943434 -2.33464e-10 -1.11173e-11 4.44693e-11
15 1 Ni 58.71 -22.88 -35.2 -33.44 2.01948e-28 -4.45 0 -0.943434 -0.943434 -0.943434 -0 -2.44581e-10 4.44693e-11
16 1 Ni 58.71 -24.64 -33.44 -33.44 0 -4.45 0 -0.943434 -0.943434 -0.943434 2.29295e-10 1.82046e-10 -1.73569e-09
17 1 Ni 58.71 -21.12 -35.2 -35.2 2.01948e-28 -4.45 0 -0.943434 -0.943434 -0.943434 -0 -0 4.44693e-11
18 1 Ni 58.71 -19.36 -33.44 -35.2 0 -4.45 0 -0.943434 -0.943434 -0.943434 -1.6815e-10 -5.55867e-11 2.22347e-11
19 1 Ni 58.71 -19.36 -35.2 -33.44 0 -4.45 0 -0.943434 -0.943434 -0.943434 -4.44693e-11 -2.01502e-10 -0
20 1 Ni 58.71 -21.12 -33.44 -33.44 2.01948e-28 -4.45 0 -0.943434 -0.943434 -0.943434 2.27905e-10 2.69595e-10 -1.73569e-09
21 1 Ni 58.71 -17.6 -35.2 -35.2 0 -4.45 0 -0.943434 -0.943434 -0.943434 -0 -0 2.22347e-11
22 1 Ni 58.71 -15.84 -33.44 -35.2 0 -4.45 0 -0.943434 -0.943434 -0.943434 1.73152e-09 5.55867e-12 4.44693e-11
23 1 Ni 58.71 -15.84 -35.2 -33.44 0 -4.45 0 -0.943434 -0.943434 -0.943434 1.11173e-11 1.79823e-09 -0
24 1 Ni 58.71 -17.6 -33.44 -33.44 0 -4.45 0 -0.943434 -0.943434 -0.943434 3.16844e-10 2.83492e-10 -1.66621e-09
25 1 Ni 58.71 -14.08 -35.2 -35.2 0 -4.45 0 -0.943434 -0.943434 -0.943434 2.22347e-11 -2.22347e-11 -3.3352e-11
26 1 Ni 58.71 -12.32 -33.44 -35.2 0 -4.45 0 -0.943434 -0.943434 -0.943434 8.89387e-11 -0 1.11173e-11
27 1 Ni 58.71 -12.32 -35.2 -33.44 0 -4.45 0 -0.943434 -0.943434 -0.943434 -2.22347e-11 -0 -2.22347e-11
28 1 Ni 58.71 -14.08 -33.44 -33.44 0 -4.45 0 -0.943434 -0.943434 -0.943434 -3.7521e-11 9.72767e-12 -1.98027e-09
29 1 Ni 58.71 -35.2 -31.68 -35.2 0 -4.45 0 -0.943434 -0.943434 -0.943434 -3.3352e-11 -0 -1.33408e-10
30 1 Ni 58.71 -33.44 -29.92 -35.2 0 -4.45 0 -0.943434 -0.943434 -0.943434 2.65426e-10 2.22347e-11 -7.9211e-11
31 1 Ni 58.71 -33.44 -31.68 -33.44 0 -4.45 0 -0.943434 -0.943434 -0.943434 -2.22347e-10 -1.84548e-09 -2.23736e-10
32 1 Ni 58.71 -35.2 -29.92 -33.44 0 -4.45 0 -0.943434 -0.943434 -0.943434 2.22347e-11 4.44693e-11 9.03283e-11
33 1 Ni 58.71 -31.68 -31.68 -35.2 0 -4.45 0 -0.943434 -0.943434 -0.943434 -8.338e-11 -1.6676e-11 -0
34 1 Ni 58.71 -29.92 -29.92 -35.2 0 -4.45 0 -0.943434 -0.943434 -0.943434 5.32242e-10 -1.11173e-11 -4.5859e-11
35 1 Ni 58.71 -29.92 -31.68 -33.44 0 -4.45 0 -0.943434 -0.943434 -0.943434 2.05671e-10 1.11173e-10 -3.23792e-10
36 1 Ni 58.71 -31.68 -29.92 -33.44 0 -4.45 0 -0.943434 -0.943434 -0.943434 9.44973e-11 -3.00168e-10 1.18122e-10
37 1 Ni 58.71 -28.16 -31.68 -35.2 0 -4.45 0 -0.943434 -0.943434 -0.943434 6.53143e-11 -1.11173e-11 -1.11173e-11
38 1 Ni 58.71 -26.4 -29.92 -35.2 0 -4.45 0 -0.943434 -0.943434 -0.943434 -5.22515e-10 1.11173e-11 1.11173e-11
39 1 Ni 58.71 -26.4 -31.68 -33.44 0 -4.45 0 -0.943434 -0.943434 -0.943434 -1.11173e-11 -4.00224e-10 -2.77933e-10
40 1 Ni 58.71 -28.16 -29.92 -33.44 0 -4.45 0 -0.943434 -0.943434 -0.943434 5.55867e-11 2.0845e-11 6.2535e-11
41 1 Ni 58.71 -24.64 -31.68 -35.2 0 -4.45 0 -0.943434 -0.943434 -0.943434 5.4197e-11 -0 -3.3352e-11
42 1 Ni 58.71 -22.88 -29.92 -35.2 2.01948e-28 -4.45 0 -0.943434 -0.943434 -0.943434 -7.78213e-10 -0 -7.78213e-11
43 1 Ni 58.71 -22.88 -31.68 -33.44 2.01948e-28 -4.45 0 -0.943434 -0.943434 -0.943434 -9.44973e-11 -3.00168e-10 -3.22403e-10
44 1 Ni 58.71 -24.64 -29.92 -33.44 0 -4.45 0 -0.943434 -0.943434 -0.943434 7.11509e-10 8.7549e-11 2.18178e-10
45 1 Ni 58.71 -21.12 -31.68 -35.2 2.01948e-28 -4.45 0 -0.943434 -0.943434 -0.943434 5.4197e-11 -0 -2.77933e-11
46 1 Ni 58.71 -19.36 -29.92 -35.2 0 -4.45 0 -0.943434 -0.943434 -0.943434 -7.14289e-10 -4.44693e-11 -1.22291e-10
47 1 Ni 58.71 -19.36 -31.68 -33.44 0 -4.45 0 -0.943434 -0.943434 -0.943434 -8.338e-11 -3.11285e-10 -2.98778e-10
48 1 Ni 58.71 -21.12 -29.92 -33.44 2.01948e-28 -4.45 0 -0.943434 -0.943434 -0.943434 8.06007e-10 1.08394e-10 2.0706e-10
49 1 Ni 58.71 -17.6 -31.68 -35.2 0 -4.45 0 -0.943434 -0.943434 -0.943434 3.89107e-11 1.13953e-10 5.55867e-11
50 1 Ni 58.71 -15.84 -29.92 -35.2 0 -4.45 0 -0.943434 -0.943434 -0.943434 -1.65926e-09 5.55867e-11 -6.80937e-11
51 1 Ni 58.71 -15.84 -31.68 -33.44 0 -4.45 0 -0.943434 -0.943434 -0.943434 7.22627e-11 1.82324e-09 -2.01502e-10
52 1 Ni 58.71 -17.6 -29.92 -33.44 0 -4.45 0 -0.943434 -0.943434 -0.943434 6.33688e-10 2.89051e-10 2.80713e-10
53 1 Ni 58.71 -14.08 -31.68 -35.2 0 -4.45 0 -0.943434 -0.943434 -0.943434 1.76488e-10 -4.44693e-11 1.00056e-10
54 1 Ni 58.71 -12.32 -29.92 -35.2 0 -4.45 0 -0.943434 -0.943434 -0.943434 5.0028e-11 -8.89387e-11 -1.33408e-10
55 1 Ni 58.71 -12.32 -31.68 -33.44 0 -4.45 0 -0.943434 -0.943434 -0.943434 -6.6704e-11 -1.77877e-10 -2.00112e-10
56 1 Ni 58.71 -14.08 -29.92 -33.44 0 -4.45 0 -0.943434 -0.943434 -0.943434 6.6704e-11 9.72767e-12 1.07004e-10
57 1 Ni 58.71 -35.2 -28.16 -35.2 0 -4.45 0 -0.943434 -0.943434 -0.943434 1.11173e-11 -0 4.44693e-11
58 1 Ni 58.71 -33.44 -26.4 -35.2 0 -4.45 0 -0.943434 -0.943434 -0.943434 -3.66872e-10 -2.22347e-11 1.11173e-11
59 1 Ni 58.71 -33.44 -28.16 -33.44 0 -4.45 0 -0.943434 -0.943434 -0.943434 -6.6704e-11 -1.68844e-09 2.64037e-11
60 1 Ni 58.71 -35.2 -26.4 -33.44 0 -4.45 0 -0.943434 -0.943434 -0.943434 -5.55867e-12 -2.22347e-11 -2.9044e-10
61 1 Ni 58.71 -31.68 -28.16 -35.2 0 -4.45 0 -0.943434 -0.943434 -0.943434 -6.6704e-11 -6.11453e-11 -1.11173e-11
62 1 Ni 58.71 -29.92 -26.4 -35.2 0 -4.45 0 -0.943434 -0.943434 -0.943434 -5.0028e-10 2.0845e-11 7.78213e-11
63 1 Ni 58.71 -29.92 -28.16 -33.44 0 -4.45 0 -0.943434 -0.943434 -0.943434 1.11173e-11 3.3352e-11 7.64317e-11
64 1 Ni 58.71 -31.68 -26.4 -33.44 0 -4.45 0 -0.943434 -0.943434 -0.943434 5.55867e-12 -2.55699e-10 -5.22515e-10
65 1 Ni 58.71 -28.16 -28.16 -35.2 0 -4.45 0 -0.943434 -0.943434 -0.943434 9.03283e-11 -1.11173e-11 -0
66 1 Ni 58.71 -26.4 -26.4 -35.2 0 -4.45 0 -0.943434 -0.943434 -0.943434 6.11453e-10 5.55867e-12 1.11173e-10
67 1 Ni 58.71 -26.4 -28.16 -33.44 0 -4.45 0 -0.943434 -0.943434 -0.943434 2.22347e-11 -2.55699e-10 1.11173e-11
68 1 Ni 58.71 -28.16 -26.4 -33.44 0 -4.45 0 -0.943434 -0.943434 -0.943434 1.11173e-11 -1.38967e-12 -1.76488e-10
69 1 Ni 58.71 -24.64 -28.16 -35.2 0 -4.45 0 -0.943434 -0.943434 -0.943434 -1.79267e-10 4.44693e-11 -7.78213e-11
70 1 Ni 58.71 -22.88 -26.4 -35.2 2.01948e-28 -4.45 0 -0.943434 -0.943434 -0.943434 7.05951e-10 -1.6676e-11 -0
71 1 Ni 58.71 -22.88 -28.16 -33.44 2.01948e-28 -4.45 0 -0.943434 -0.943434 -0.943434 6.6704e-11 -2.22347e-11 1.11173e-11
72 1 Ni 58.71 -24.64 -26.4 -33.44 0 -4.45 0 -0.943434 -0.943434 -0.943434 -7.11509e-10 1.20901e-10 -3.57144e-10
73 1 Ni 58.71 -21.12 -28.16 -35.2 2.01948e-28 -4.45 0 -0.943434 -0.943434 -0.943434 -1.38967e-12 -0 -1.11173e-11
74 1 Ni 58.71 -19.36 -26.4 -35.2 0 -4.45 0 -0.943434 -0.943434 -0.943434 6.78157e-10 8.338e-12 1.33408e-10
75 1 Ni 58.71 -19.36 -28.16 -33.44 0 -4.45 0 -0.943434 -0.943434 -0.943434 4.44693e-11 -1.11173e-11 2.36243e-11
76 1 Ni 58.71 -21.12 -26.4 -33.44 2.01948e-28 -4.45 0 -0.943434 -0.943434 -0.943434 -7.11509e-10 1.19511e-10 -4.01614e-10
77 1 Ni 58.71 -17.6 -28.16 -35.2 0 -4.45 0 -0.943434 -0.943434 -0.943434 5.55867e-11 2.77933e-12 -7.78213e-11
78 1 Ni 58.71 -15.84 -26.4 -35.2 0 -4.45 0 -0.943434 -0.943434 -0.943434 1.74542e-09 9.1718e-11 1.44525e-10
79 1 Ni 58.71 -15.84 -28.16 -33.44 0 -4.45 0 -0.943434 -0.943434 -0.943434 -5.55867e-12 1.62313e-09 9.72767e-12
80 1 Ni 58.71 -17.6 -26.4 -33.44 0 -4.45 0 -0.943434 -0.943434 -0.943434 -7.67096e-10 2.05671e-10 -3.77989e-10
81 1 Ni 58.71 -14.08 -28.16 -35.2 0 -4.45 0 -0.943434 -0.943434 -0.943434 -1.11173e-11 -2.22347e-11 -4.44693e-11
82 1 Ni 58.71 -12.32 -26.4 -35.2 0 -4.45 0 -0.943434 -0.943434 -0.943434 -5.55867e-12 1.33408e-10 -0
83 1 Ni 58.71 -12.32 -28.16 -33.44 0 -4.45 0 -0.943434 -0.943434 -0.943434 -1.11173e-11 -4.44693e-11 2.9183e-11
84 1 Ni 58.71 -14.08 -26.4 -33.44 0 -4.45 0 -0.943434 -0.943434 -0.943434 -2.22347e-11 9.72767e-12 -1.15342e-10
85 1 Ni 58.71 -35.2 -24.64 -35.2 0 -4.45 0 -0.943434 -0.943434 -0.943434 2.22347e-11 -2.22347e-11 6.6704e-11
86 1 Ni 58.71 -33.44 -22.88 -35.2 2.01948e-28 -4.45 0 -0.943434 -0.943434 -0.943434 -2.22347e-10 5.55867e-11 3.3352e-11
87 1 Ni 58.71 -33.44 -24.64 -33.44 0 -4.45 0 -0.943434 -0.943434 -0.943434 2.05671e-10 -1.72458e-09 7.0873e-11
88 1 Ni 58.71 -35.2 -22.88 -33.44 2.01948e-28 -4.45 0 -0.943434 -0.943434 -0.943434 -0 -0 -2.01502e-10
89 1 Ni 58.71 -31.68 -24.64 -35.2 0 -4.45 0 -0.943434 -0.943434 -0.943434 5.4197e-11 1.11173e-11 2.22347e-11
90 1 Ni 58.71 -29.92 -22.88 -35.2 2.01948e-28 -4.45 0 -0.943434 -0.943434 -0.943434 -7.67096e-10 3.3352e-11 -1.11173e-11
91 1 Ni 58.71 -29.92 -24.64 -33.44 0 -4.45 0 -0.943434 -0.943434 -0.943434 7.00392e-10 2.87661e-10 1.76488e-10
92 1 Ni 58.71 -31.68 -22.88 -33.44 2.01948e-28 -4.45 0 -0.943434 -0.943434 -0.943434 -6.11453e-11 -2.55699e-10 -3.22403e-10
93 1 Ni 58.71 -28.16 -24.64 -35.2 0 -4.45 0 -0.943434 -0.943434 -0.943434 3.19623e-11 -0 -0
94 1 Ni 58.71 -26.4 -22.88 -35.2 2.01948e-28 -4.45 0 -0.943434 -0.943434 -0.943434 6.94833e-10 8.338e-11 -3.3352e-11
95 1 Ni 58.71 -26.4 -24.64 -33.44 0 -4.45 0 -0.943434 -0.943434 -0.943434 -7.22627e-10 -4.22459e-10 1.01446e-10
96 1 Ni 58.71 -28.16 -22.88 -33.44 2.01948e-28 -4.45 0 -0.943434 -0.943434 -0.943434 1.11173e-10 -3.3352e-11 -8.7549e-11
97 1 Ni 58.71 -24.64 -24.64 -35.2 0 -4.45 0 -0.943434 -0.943434 -0.943434 7.65706e-10 1.6676e-11 -2.77933e-12
98 1 Ni 58.71 -22.88 -22.88 -35.2 4.03897e-28 -4.45 0 -0.943434 -0.943434 -0.943434 7.05951e-10 -1.6676e-11 -1.0881e-219
99 1 Ni 58.71 -22.88 -24.64 -33.44 2.01948e-28 -4.45 0 -0.943434 -0.943434 -0.943434 -8.56035e-10 -1.33408e-10 1.6537e-10
100 1 Ni 58.71 -24.64 -22.88 -33.44 2.01948e-28 -4.45 0 -0.943434 -0.943434 -0.943434 -9.22739e-10 1.55643e-10 -1.34798e-10
101 1 Ni 58.71 -21.12 -24.64 -35.2 2.01948e-28 -4.45 0 -0.943434 -0.943434 -0.943434 7.54589e-10 5.55867e-12 -2.77933e-12
102 1 Ni 58.71 -19.36 -22.88 -35.2 2.01948e-28 -4.45 0 -0.943434 -0.943434 -0.943434 7.89331e-10 1.11173e-11 -5.55867e-12
103 1 Ni 58.71 -19.36 -24.64 -33.44 0 -4.45 0 -0.943434 -0.943434 -0.943434 -9.22739e-10 -1.6815e-10 1.6537e-10
104 1 Ni 58.71 -21.12 -22.88 -33.44 4.03897e-28 -4.45 0 -0.943434 -0.943434 -0.943434 -8.67152e-10 1.55643e-10 -1.2368e-10
105 1 Ni 58.71 -17.6 -24.64 -35.2 0 -4.45 0 -0.943434 -0.943434 -0.943434 6.72599e-10 -2.77933e-11 5.55867e-11
106 1 Ni 58.71 -15.84 -22.88 -35.2 2.01948e-28 -4.45 0 -0.943434 -0.943434 -0.943434 1.87883e-09 5.55867e-12 1.00056e-10
107 1 Ni 58.71 -15.84 -24.64 -33.44 0 -4.45 0 -0.943434 -0.943434 -0.943434 -1.82324e-09 1.57588e-09 1.87605e-10
108 1 Ni 58.71 -17.6 -22.88 -33.44 2.01948e-28 -4.45 0 -0.943434 -0.943434 -0.943434 -8.44917e-10 3.00168e-10 -2.39023e-10
109 1 Ni 58.71 -14.08 -24.64 -35.2 0 -4.45 0 -0.943434 -0.943434 -0.943434 7.78213e-11 -1.11173e-10 -3.89107e-11
110 1 Ni 58.71 -12.32 -22.88 -35.2 2.01948e-28 -4.45 0 -0.943434 -0.943434 -0.943434 -8.89387e-11 -1.11173e-10 2.22347e-11
111 1 Ni 58.71 -12.32 -24.64 -33.44 0 -4.45 0 -0.943434 -0.943434 -0.943434 -0 -1.33408e-10 4.03003e-11
112 1 Ni 58.71 -14.08 -22.88 -33.44 2.01948e-28 -4.45 0 -0.943434 -0.943434 -0.943434 -2.11229e-10 1.2507e-11 -1.54253e-10
113 1 Ni 58.71 -35.2 -21.12 -35.2 2.01948e-28 -4.45 0 -0.943434 -0.943434 -0.943434 2.22347e-11 -2.22347e-11 8.89387e-11
114 1 Ni 58.71 -33.44 -19.36 -35.2 0 -4.45 0 -0.943434 -0.943434 -0.943434 -7.78213e-11 -4.44693e-11 -6.6704e-11
115 1 Ni 58.71 -33.44 -21.12 -33.44 2.01948e-28 -4.45 0 -0.943434 -0.943434 -0.943434 1.61201e-10 -1.71346e-09 1.37577e-10
116 1 Ni 58.71 -35.2 -19.36 -33.44 0 -4.45 0 -0.943434 -0.943434 -0.943434 2.22347e-11 4.44693e-11 -2.11229e-10
117 1 Ni 58.71 -31.68 -21.12 -35.2 2.01948e-28 -4.45 0 -0.943434 -0.943434 -0.943434 5.4197e-11 -0 4.44693e-11
118 1 Ni 58.71 -29.92 -19.36 -35.2 0 -4.45 0 -0.943434 -0.943434 -0.943434 -7.11509e-10 3.3352e-11 -2.22347e-11
119 1 Ni 58.71 -29.92 -21.12 -33.44 2.01948e-28 -4.45 0 -0.943434 -0.943434 -0.943434 8.11565e-10 2.43192e-10 1.32018e-10
120 1 Ni 58.71 -31.68 -19.36 -33.44 0 -4.45 0 -0.943434 -0.943434 -0.943434 -1.05615e-10 -2.76544e-10 -3.3352e-10
121 1 Ni 58.71 -28.16 -21.12 -35.2 2.01948e-28 -4.45 0 -0.943434 -0.943434 -0.943434 -1.12563e-10 -0 -0
122 1 Ni 58.71 -26.4 -19.36 -35.2 0 -4.45 0 -0.943434 -0.943434 -0.943434 6.94833e-10 7.78213e-11 -0
123 1 Ni 58.71 -26.4 -21.12 -33.44 2.01948e-28 -4.45 0 -0.943434 -0.943434 -0.943434 -6.33688e-10 -5.0028e-10 2.12619e-10
124 1 Ni 58.71 -28.16 -19.36 -33.44 0 -4.45 0 -0.943434 -0.943434 -0.943434 1.16732e-10 -2.0845e-11 -1.55643e-10
125 1 Ni 58.71 -24.64 -21.12 -35.2 2.01948e-28 -4.45 0 -0.943434 -0.943434 -0.943434 7.32354e-10 -0 -6.6704e-11
126 1 Ni 58.71 -22.88 -19.36 -35.2 2.01948e-28 -4.45 0 -0.943434 -0.943434 -0.943434 7.39303e-10 -1.11173e-11 -2.22347e-11
127 1 Ni 58.71 -22.88 -21.12 -33.44 4.03897e-28 -4.45 0 -0.943434 -0.943434 -0.943434 -8.89387e-10 -7.78213e-11 8.7549e-11
128 1 Ni 58.71 -24.64 -19.36 -33.44 0 -4.45 0 -0.943434 -0.943434 -0.943434 -8.78269e-10 1.6815e-10 -1.33408e-10
129 1 Ni 58.71 -21.12 -21.12 -35.2 4.03897e-28 -4.45 0 -0.943434 -0.943434 -0.943434 6.87885e-10 -5.0028e-11 -4.44693e-11
130 1 Ni 58.71 -19.36 -19.36 -35.2 0 -4.45 0 -0.943434 -0.943434 -0.943434 7.78213e-10 -2.22347e-11 -4.44693e-11
131 1 Ni 58.71 -19.36 -21.12 -33.44 2.01948e-28 -4.45 0 -0.943434 -0.943434 -0.943434 -9.11621e-10 -1.01446e-10 8.7549e-11
132 1 Ni 58.71 -21.12 -19.36 -33.44 2.01948e-28 -4.45 0 -0.943434 -0.943434 -0.943434 -9.22739e-10 1.6815e-10 -1.77877e-10
133 1 Ni 58.71 -17.6 -21.12 -35.2 2.01948e-28 -4.45 0 -0.943434 -0.943434 -0.943434 5.66984e-10 -5.0028e-11 -8.89387e-11
134 1 Ni 58.71 -15.84 -19.36 -35.2 0 -4.45 0 -0.943434 -0.943434 -0.943434 1.70095e-09 -3.89107e-11 -6.6704e-11
135 1 Ni 58.71 -15.84 -21.12 -33.44 2.01948e-28 -4.45 0 -0.943434 -0.943434 -0.943434 -1.82324e-09 1.68706e-09 6.53143e-11
136 1 Ni 58.71 -17.6 -19.36 -33.44 0 -4.45 0 -0.943434 -0.943434 -0.943434 -7.78213e-10 2.26516e-10 -1.77877e-10
137 1 Ni 58.71 -14.08 -21.12 -35.2 2.01948e-28 -4.45 0 -0.943434 -0.943434 -0.943434 1.44525e-10 -4.44693e-11 -6.6704e-11
138 1 Ni 58.71 -12.32 -19.36 -35.2 0 -4.45 0 -0.943434 -0.943434 -0.943434 -0 -1.11173e-10 -5.55867e-11
139 1 Ni 58.71 -12.32 -21.12 -33.44 2.01948e-28 -4.45 0 -0.943434 -0.943434 -0.943434 2.22347e-11 4.44693e-11 9.03283e-11
140 1 Ni 58.71 -14.08 -19.36 -33.44 0 -4.45 0 -0.943434 -0.943434 -0.943434 -3.19623e-11 -1.09784e-10 -1.55643e-10
141 1 Ni 58.71 -35.2 -35.2 -31.68 0 -4.45 0 -0.943434 -0.943434 -0.943434 -2.22347e-11 -4.44693e-11 -1.33408e-10
142 1 Ni 58.71 -33.44 -33.44 -31.68 0 -4.45 0 -0.943434 -0.943434 -0.943434 -1.84409e-09 -2.00112e-10 -1.33408e-10
143 1 Ni 58.71 -33.44 -35.2 -29.92 0 -4.45 0 -0.943434 -0.943434 -0.943434 2.22347e-11 2.0984e-10 3.3352e-11
144 1 Ni 58.71 -35.2 -33.44 -29.92 0 -4.45 0 -0.943434 -0.943434 -0.943434 3.3352e-11 -4.44693e-11 1.88995e-10
145 1 Ni 58.71 -31.68 -35.2 -31.68 0 -4.45 0 -0.943434 -0.943434 -0.943434 -3.61313e-11 -1.6815e-10 -4.44693e-11
146 1 Ni 58.71 -29.92 -33.44 -31.68 0 -4.45 0 -0.943434 -0.943434 -0.943434 2.52919e-10 1.77877e-10 -3.11285e-10
147 1 Ni 58.71 -29.92 -35.2 -29.92 0 -4.45 0 -0.943434 -0.943434 -0.943434 -1.11173e-11 5.32242e-10 -4.44693e-11
148 1 Ni 58.71 -31.68 -33.44 -29.92 0 -4.45 0 -0.943434 -0.943434 -0.943434 -3.27961e-10 2.22347e-11 9.86663e-11
149 1 Ni 58.71 -28.16 -35.2 -31.68 0 -4.45 0 -0.943434 -0.943434 -0.943434 -8.338e-12 -1.38967e-12 -0
150 1 Ni 58.71 -26.4 -33.44 -31.68 0 -4.45 0 -0.943434 -0.943434 -0.943434 -4.65538e-10 -5.55867e-12 -4.00224e-10
151 1 Ni 58.71 -26.4 -35.2 -29.92 0 -4.45 0 -0.943434 -0.943434 -0.943434 1.11173e-11 -5.0028e-10 -4.44693e-11
152 1 Ni 58.71 -28.16 -33.44 -29.92 0 -4.45 0 -0.943434 -0.943434 -0.943434 -9.72767e-12 8.338e-12 5.4197e-11
153 1 Ni 58.71 -24.64 -35.2 -31.68 0 -4.45 0 -0.943434 -0.943434 -0.943434 6.94833e-11 1.98722e-10 -4.44693e-11
154 1 Ni 58.71 -22.88 -33.44 -31.68 2.01948e-28 -4.45 0 -0.943434 -0.943434 -0.943434 -2.65426e-10 -1.05615e-10 -4.44693e-10
155 1 Ni 58.71 -22.88 -35.2 -29.92 2.01948e-28 -4.45 0 -0.943434 -0.943434 -0.943434 -0 -6.44805e-10 4.44693e-11
156 1 Ni 58.71 -24.64 -33.44 -29.92 0 -4.45 0 -0.943434 -0.943434 -0.943434 1.29239e-10 8.36579e-10 1.6537e-10
157 1 Ni 58.71 -21.12 -35.2 -31.68 2.01948e-28 -4.45 0 -0.943434 -0.943434 -0.943434 3.61313e-11 6.53143e-11 -4.44693e-11
158 1 Ni 58.71 -19.36 -33.44 -31.68 0 -4.45 0 -0.943434 -0.943434 -0.943434 -2.65426e-10 -1.05615e-10 -4.00224e-10
159 1 Ni 58.71 -19.36 -35.2 -29.92 0 -4.45 0 -0.943434 -0.943434 -0.943434 -0 -6.69819e-10 -0
160 1 Ni 58.71 -21.12 -33.44 -29.92 2.01948e-28 -4.45 0 -0.943434 -0.943434 -0.943434 1.27849e-10 6.80937e-10 1.6537e-10
161 1 Ni 58.71 -17.6 -35.2 -31.68 0 -4.45 0 -0.943434 -0.943434 -0.943434 3.19623e-11 2.0845e-11 -0
162 1 Ni 58.71 -15.84 -33.44 -31.68 0 -4.45 0 -0.943434 -0.943434 -0.943434 1.58005e-09 1.33408e-10 -3.77989e-10
163 1 Ni 58.71 -15.84 -35.2 -29.92 0 -4.45 0 -0.943434 -0.943434 -0.943434 -1.0881e-219 -1.78155e-09 -4.44693e-11
164 1 Ni 58.71 -17.6 -33.44 -29.92 0 -4.45 0 -0.943434 -0.943434 -0.943434 3.00168e-10 6.33688e-10 2.39023e-10
165 1 Ni 58.71 -14.08 -35.2 -31.68 0 -4.45 0 -0.943434 -0.943434 -0.943434 -3.3352e-11 1.22291e-10 1.11173e-11
166 1 Ni 58.71 -12.32 -33.44 -31.68 0 -4.45 0 -0.943434 -0.943434 -0.943434 -4.44693e-11 -2.22347e-11 -2.11229e-10
167 1 Ni 58.71 -12.32 -35.2 -29.92 0 -4.45 0 -0.943434 -0.943434 -0.943434 -0 5.0028e-11 -0
168 1 Ni 58.71 -14.08 -33.44 -29.92 0 -4.45 0 -0.943434 -0.943434 -0.943434 -3.7521e-11 1.55643e-10 1.76488e-10
169 1 Ni 58.71 -35.2 -31.68 -31.68 0 -4.45 0 -0.943434 -0.943434 -0.943434 -5.55867e-12 -2.77933e-11 -1.33408e-10
170 1 Ni 58.71 -33.44 -29.92 -31.68 0 -4.45 0 -0.943434 -0.943434 -0.943434 2.33464e-10 -3.3352e-10 4.169e-11
171 1 Ni 58.71 -33.44 -31.68 -29.92 0 -4.45 0 -0.943434 -0.943434 -0.943434 -3.77989e-10 2.11229e-10 1.6676e-10
172 1 Ni 58.71 -35.2 -29.92 -29.92 0 -4.45 0 -0.943434 -0.943434 -0.943434 1.11173e-11 -0 6.00336e-10
173 1 Ni 58.71 -31.68 -31.68 -31.68 0 -4.45 0 -0.943434 -0.943434 -0.943434 -1.6676e-11 -1.11173e-11 -2.22347e-11
174 1 Ni 58.71 -29.92 -29.92 -31.68 0 -4.45 0 -0.943434 -0.943434 -0.943434 5.44749e-10 2.33464e-10 2.30685e-10
175 1 Ni 58.71 -29.92 -31.68 -29.92 0 -4.45 0 -0.943434 -0.943434 -0.943434 2.33464e-10 6.00336e-10 3.08506e-10
176 1 Ni 58.71 -31.68 -29.92 -29.92 0 -4.45 0 -0.943434 -0.943434 -0.943434 1.77877e-10 2.66816e-10 6.99002e-10
177 1 Ni 58.71 -28.16 -31.68 -31.68 0 -4.45 0 -0.943434 -0.943434 -0.943434 4.44693e-11 -1.11173e-11 -5.55867e-12
178 1 Ni 58.71 -26.4 -29.92 -31.68 0 -4.45 0 -0.943434 -0.943434 -0.943434 -7.11509e-10 -8.89387e-11 2.22347e-10
179 1 Ni 58.71 -26.4 -31.68 -29.92 0 -4.45 0 -0.943434 -0.943434 -0.943434 -2.22347e-11 -5.33632e-10 2.77933e-10
180 1 Ni 58.71 -28.16 -29.92 -29.92 0 -4.45 0 -0.943434 -0.943434 -0.943434 3.3352e-11 -1.02835e-10 6.54533e-10
181 1 Ni 58.71 -24.64 -31.68 -31.68 0 -4.45 0 -0.943434 -0.943434 -0.943434 -1.11173e-11 2.22347e-11 8.338e-11
182 1 Ni 58.71 -22.88 -29.92 -31.68 2.01948e-28 -4.45 0 -0.943434 -0.943434 -0.943434 -7.55979e-10 -8.338e-11 1.22291e-10
183 1 Ni 58.71 -22.88 -31.68 -29.92 2.01948e-28 -4.45 0 -0.943434 -0.943434 -0.943434 -5.55867e-11 -7.33744e-10 1.6676e-10
184 1 Ni 58.71 -24.64 -29.92 -29.92 0 -4.45 0 -0.943434 -0.943434 -0.943434 7.44861e-10 7.64317e-10 7.1012e-10
185 1 Ni 58.71 -21.12 -31.68 -31.68 2.01948e-28 -4.45 0 -0.943434 -0.943434 -0.943434 -5.55867e-11 -2.22347e-11 8.338e-11
186 1 Ni 58.71 -19.36 -29.92 -31.68 0 -4.45 0 -0.943434 -0.943434 -0.943434 -7.44861e-10 -2.77933e-11 1.22291e-10
187 1 Ni 58.71 -19.36 -31.68 -29.92 0 -4.45 0 -0.943434 -0.943434 -0.943434 -3.3352e-11 -7.67096e-10 1.6676e-10
188 1 Ni 58.71 -21.12 -29.92 -29.92 2.01948e-28 -4.45 0 -0.943434 -0.943434 -0.943434 7.44861e-10 7.19847e-10 7.1012e-10
189 1 Ni 58.71 -17.6 -31.68 -31.68 0 -4.45 0 -0.943434 -0.943434 -0.943434 -1.11173e-11 -5.55867e-11 1.11173e-10
190 1 Ni 58.71 -15.84 -29.92 -31.68 0 -4.45 0 -0.943434 -0.943434 -0.943434 -1.76766e-09 8.89387e-11 1.63981e-10
191 1 Ni 58.71 -15.84 -31.68 -29.92 0 -4.45 0 -0.943434 -0.943434 -0.943434 -3.89107e-11 -1.70095e-09 1.63981e-10
192 1 Ni 58.71 -17.6 -29.92 -29.92 0 -4.45 0 -0.943434 -0.943434 -0.943434 6.11453e-10 6.33688e-10 6.72599e-10
193 1 Ni 58.71 -14.08 -31.68 -31.68 0 -4.45 0 -0.943434 -0.943434 -0.943434 4.44693e-11 1.44525e-10 -3.89107e-11
194 1 Ni 58.71 -12.32 -29.92 -31.68 0 -4.45 0 -0.943434 -0.943434 -0.943434 -5.55867e-11 3.3352e-11 1.11173e-10
195 1 Ni 58.71 -12.32 -31.68 -29.92 0 -4.45 0 -0.943434 -0.943434 -0.943434 4.44693e-11 -0 1.55643e-10
196 1 Ni 58.71 -14.08 -29.92 -29.92 0 -4.45 0 -0.943434 -0.943434 -0.943434 5.55867e-11 4.44693e-11 5.16956e-10
197 1 Ni 58.71 -35.2 -28.16 -31.68 0 -4.45 0 -0.943434 -0.943434 -0.943434 4.44693e-11 1.6676e-11 -4.44693e-11
198 1 Ni 58.71 -33.44 -26.4 -31.68 0 -4.45 0 -0.943434 -0.943434 -0.943434 -4.54421e-10 -2.00112e-10 1.6676e-11
199 1 Ni 58.71 -33.44 -28.16 -29.92 0 -4.45 0 -0.943434 -0.943434 -0.943434 4.44693e-11 -7.78213e-11 7.78213e-11
200 1 Ni 58.71 -35.2 -26.4 -29.92 0 -4.45 0 -0.943434 -0.943434 -0.943434 -0 -0 -5.25294e-10
201 1 Ni 58.71 -31.68 -28.16 -31.68 0 -4.45 0 -0.943434 -0.943434 -0.943434 -8.338e-11 -4.44693e-11 -3.3352e-11
202 1 Ni 58.71 -29.92 -26.4 -31.68 0 -4.45 0 -0.943434 -0.943434 -0.943434 -5.11397e-10 2.52919e-10 -1.44525e-10
203 1 Ni 58.71 -29.92 -28.16 -29.92 0 -4.45 0 -0.943434 -0.943434 -0.943434 -5.55867e-11 8.00448e-10 -2.5014e-11
204 1 Ni 58.71 -31.68 -26.4 -29.92 0 -4.45 0 -0.943434 -0.943434 -0.943434 -1.50084e-10 2.22347e-10 -6.44805e-10
205 1 Ni 58.71 -28.16 -28.16 -31.68 0 -4.45 0 -0.943434 -0.943434 -0.943434 1.11173e-11 -1.11173e-11 3.89107e-11
206 1 Ni 58.71 -26.4 -26.4 -31.68 0 -4.45 0 -0.943434 -0.943434 -0.943434 8.00448e-10 -7.78213e-11 -1.33408e-10
207 1 Ni 58.71 -26.4 -28.16 -29.92 0 -4.45 0 -0.943434 -0.943434 -0.943434 -1.00056e-10 -7.55979e-10 -0
208 1 Ni 58.71 -28.16 -26.4 -29.92 0 -4.45 0 -0.943434 -0.943434 -0.943434 4.44693e-11 8.338e-12 -7.11509e-10
209 1 Ni 58.71 -24.64 -28.16 -31.68 0 -4.45 0 -0.943434 -0.943434 -0.943434 3.3352e-11 2.22347e-11 4.44693e-11
210 1 Ni 58.71 -22.88 -26.4 -31.68 2.01948e-28 -4.45 0 -0.943434 -0.943434 -0.943434 8.50476e-10 5.55867e-11 -4.44693e-11
211 1 Ni 58.71 -22.88 -28.16 -29.92 2.01948e-28 -4.45 0 -0.943434 -0.943434 -0.943434 -1.11173e-11 -8.00448e-10 1.11173e-11
212 1 Ni 58.71 -24.64 -26.4 -29.92 0 -4.45 0 -0.943434 -0.943434 -0.943434 -6.11453e-10 8.31021e-10 -5.80881e-10
213 1 Ni 58.71 -21.12 -28.16 -31.68 2.01948e-28 -4.45 0 -0.943434 -0.943434 -0.943434 -1.11173e-11 6.6704e-11 -4.44693e-11
214 1 Ni 58.71 -19.36 -26.4 -31.68 0 -4.45 0 -0.943434 -0.943434 -0.943434 7.55979e-10 5.4197e-11 -3.89107e-11
215 1 Ni 58.71 -19.36 -28.16 -29.92 0 -4.45 0 -0.943434 -0.943434 -0.943434 4.44693e-11 -8.56035e-10 1.11173e-11
216 1 Ni 58.71 -21.12 -26.4 -29.92 2.01948e-28 -4.45 0 -0.943434 -0.943434 -0.943434 -6.94833e-10 7.75434e-10 -6.92054e-10
217 1 Ni 58.71 -17.6 -28.16 -31.68 0 -4.45 0 -0.943434 -0.943434 -0.943434 5.0028e-11 -1.11173e-11 3.3352e-11
218 1 Ni 58.71 -15.84 -26.4 -31.68 0 -4.45 0 -0.943434 -0.943434 -0.943434 1.82324e-09 -2.36243e-11 5.55867e-12
219 1 Ni 58.71 -15.84 -28.16 -29.92 0 -4.45 0 -0.943434 -0.943434 -0.943434 -4.44693e-11 -1.83436e-09 4.169e-11
220 1 Ni 58.71 -17.6 -26.4 -29.92 0 -4.45 0 -0.943434 -0.943434 -0.943434 -7.55979e-10 6.28129e-10 -6.33688e-10
221 1 Ni 58.71 -14.08 -28.16 -31.68 0 -4.45 0 -0.943434 -0.943434 -0.943434 1.38967e-12 -0 -5.0028e-11
222 1 Ni 58.71 -12.32 -26.4 -31.68 0 -4.45 0 -0.943434 -0.943434 -0.943434 -4.44693e-11 -1.11173e-11 -3.89107e-11
223 1 Ni 58.71 -12.32 -28.16 -29.92 0 -4.45 0 -0.943434 -0.943434 -0.943434 -4.44693e-11 -0 1.11173e-11
224 1 Ni 58.71 -14.08 -26.4 -29.92 0 -4.45 0 -0.943434 -0.943434 -0.943434 6.6704e-11 -1.11173e-11 -6.83716e-10
225 1 Ni 58.71 -35.2 -24.64 -31.68 0 -4.45 0 -0.943434 -0.943434 -0.943434 -3.3352e-11 -0 1.44525e-10
226 1 Ni 58.71 -33.44 -22.88 -31.68 2.01948e-28 -4.45 0 -0.943434 -0.943434 -0.943434 -2.89051e-10 -2.00112e-10 -1.16732e-10
227 1 Ni 58.71 -33.44 -24.64 -29.92 0 -4.45 0 -0.943434 -0.943434 -0.943434 1.6676e-10 1.6537e-10 7.47641e-10
228 1 Ni 58.71 -35.2 -22.88 -29.92 2.01948e-28 -4.45 0 -0.943434 -0.943434 -0.943434 1.11173e-11 -8.89387e-11 -7.55979e-10
229 1 Ni 58.71 -31.68 -24.64 -31.68 0 -4.45 0 -0.943434 -0.943434 -0.943434 1.11173e-11 1.22291e-10 4.44693e-11
230 1 Ni 58.71 -29.92 -22.88 -31.68 2.01948e-28 -4.45 0 -0.943434 -0.943434 -0.943434 -8.22683e-10 1.6676e-10 -1.11173e-11
231 1 Ni 58.71 -29.92 -24.64 -29.92 0 -4.45 0 -0.943434 -0.943434 -0.943434 7.33744e-10 6.21181e-10 6.97613e-10
232 1 Ni 58.71 -31.68 -22.88 -29.92 2.01948e-28 -4.45 0 -0.943434 -0.943434 -0.943434 -1.00056e-10 2.55699e-10 -8.00448e-10
233 1 Ni 58.71 -28.16 -24.64 -31.68 0 -4.45 0 -0.943434 -0.943434 -0.943434 -1.00056e-10 -0 1.22291e-10
234 1 Ni 58.71 -26.4 -22.88 -31.68 2.01948e-28 -4.45 0 -0.943434 -0.943434 -0.943434 8.06007e-10 -1.33408e-10 4.44693e-11
235 1 Ni 58.71 -26.4 -24.64 -29.92 0 -4.45 0 -0.943434 -0.943434 -0.943434 -6.33688e-10 -5.78101e-10 7.94889e-10
236 1 Ni 58.71 -28.16 -22.88 -29.92 2.01948e-28 -4.45 0 -0.943434 -0.943434 -0.943434 -0 -7.78213e-11 -8.22683e-10
237 1 Ni 58.71 -24.64 -24.64 -31.68 0 -4.45 0 -0.943434 -0.943434 -0.943434 8.22683e-10 6.11453e-11 4.30797e-11
238 1 Ni 58.71 -22.88 -22.88 -31.68 4.03897e-28 -4.45 0 -0.943434 -0.943434 -0.943434 8.50476e-10 -4.44693e-11 1.0881e-219
239 1 Ni 58.71 -22.88 -24.64 -29.92 2.01948e-28 -4.45 0 -0.943434 -0.943434 -0.943434 -7.72655e-10 -8.00448e-10 7.97669e-10
240 1 Ni 58.71 -24.64 -22.88 -29.92 2.01948e-28 -4.45 0 -0.943434 -0.943434 -0.943434 -6.94833e-10 8.67152e-10 -8.47697e-10
241 1 Ni 58.71 -21.12 -24.64 -31.68 2.01948e-28 -4.45 0 -0.943434 -0.943434 -0.943434 7.33744e-10 1.6676e-11 -1.38967e-12
242 1 Ni 58.71 -19.36 -22.88 -31.68 2.01948e-28 -4.45 0 -0.943434 -0.943434 -0.943434 7.55979e-10 -4.44693e-11 5.55867e-12
243 1 Ni 58.71 -19.36 -24.64 -29.92 0 -4.45 0 -0.943434 -0.943434 -0.943434 -7.83772e-10 -7.58758e-10 8.53255e-10
244 1 Ni 58.71 -21.12 -22.88 -29.92 4.03897e-28 -4.45 0 -0.943434 -0.943434 -0.943434 -6.94833e-10 8.67152e-10 -8.47697e-10
245 1 Ni 58.71 -17.6 -24.64 -31.68 0 -4.45 0 -0.943434 -0.943434 -0.943434 7.44861e-10 3.3352e-11 4.44693e-11
246 1 Ni 58.71 -15.84 -22.88 -31.68 2.01948e-28 -4.45 0 -0.943434 -0.943434 -0.943434 1.68983e-09 1.00056e-10 -3.89107e-11
247 1 Ni 58.71 -15.84 -24.64 -29.92 0 -4.45 0 -0.943434 -0.943434 -0.943434 -1.71763e-09 -1.73708e-09 7.75434e-10
248 1 Ni 58.71 -17.6 -22.88 -29.92 2.01948e-28 -4.45 0 -0.943434 -0.943434 -0.943434 -6.33688e-10 8.00448e-10 -8.94945e-10
249 1 Ni 58.71 -14.08 -24.64 -31.68 0 -4.45 0 -0.943434 -0.943434 -0.943434 -8.7549e-11 8.89387e-11 1.00056e-10
250 1 Ni 58.71 -12.32 -22.88 -31.68 2.01948e-28 -4.45 0 -0.943434 -0.943434 -0.943434 2.22347e-11 -0 1.33408e-10
251 1 Ni 58.71 -12.32 -24.64 -29.92 0 -4.45 0 -0.943434 -0.943434 -0.943434 -0 -0 8.00448e-10
252 1 Ni 58.71 -14.08 -22.88 -29.92 2.01948e-28 -4.45 0 -0.943434 -0.943434 -0.943434 1.11173e-10 2.00112e-10 -6.05895e-10
253 1 Ni 58.71 -35.2 -21.12 -31.68 2.01948e-28 -4.45 0 -0.943434 -0.943434 -0.943434 1.11173e-11 -4.44693e-11 1.11173e-11
254 1 Ni 58.71 -33.44 -19.36 -31.68 0 -4.45 0 -0.943434 -0.943434 -0.943434 -3.11285e-10 -3.11285e-10 -1.05615e-10
255 1 Ni 58.71 -33.44 -21.12 -29.92 2.01948e-28 -4.45 0 -0.943434 -0.943434 -0.943434 1.77877e-10 2.32074e-10 7.61537e-10
256 1 Ni 58.71 -35.2 -19.36 -29.92 0 -4.45 0 -0.943434 -0.943434 -0.943434 -0 4.44693e-11 -7.55979e-10
257 1 Ni 58.71 -31.68 -21.12 -31.68 2.01948e-28 -4.45 0 -0.943434 -0.943434 -0.943434 -1.62904e-230 8.89387e-11 -8.89387e-11
258 1 Ni 58.71 -29.92 -19.36 -31.68 0 -4.45 0 -0.943434 -0.943434 -0.943434 -8.22683e-10 2.55699e-10 -5.55867e-11
259 1 Ni 58.71 -29.92 -21.12 -29.92 2.01948e-28 -4.45 0 -0.943434 -0.943434 -0.943434 7.55979e-10 5.48918e-10 7.11509e-10
260 1 Ni 58.71 -31.68 -19.36 -29.92 0 -4.45 0 -0.943434 -0.943434 -0.943434 -8.89387e-11 1.00056e-10 -7.55979e-10
261 1 Ni 58.71 -28.16 -21.12 -31.68 2.01948e-28 -4.45 0 -0.943434 -0.943434 -0.943434 -1.11173e-11 -5.0028e-11 4.44693e-11
262 1 Ni 58.71 -26.4 -19.36 -31.68 0 -4.45 0 -0.943434 -0.943434 -0.943434 7.61537e-10 -1.33408e-10 -4.44693e-11