ITEM: TIMESTEP
0
ITEM: NUMBER OF ATOMS
4000
ITEM: BOX BOUNDS pp pp pp
0.0000000000000000e+00 3.6000000000000000e+01
0.0000000000000000e+00 3.6000000000000000e+01
0.0000000000000000e+00 3.6000000000000000e+01
ITEM: ATOMS id type element mass x y z c_csym c_potEnergy c_kinEnergy c_sigma[1] c_sigma[2] c_sigma[3] c_sigma[4] c_sigma[5] c_sigma[6]
1 2 Al 26.982 0 0 0 9.99881e-29 -5.07076 0 2.39529e+06 2.39529e+06 2.39529e+06 -0 4.44693e-11 -2.22347e-11
2 1 Ni 58.71 1.8 1.8 0 3.33294e-29 -4.45778 0 841171 841171 506618 -6.87885e-11 2.94609e-10 1.83436e-10
3 1 Ni 58.71 1.8 0 1.8 3.33294e-29 -4.45778 0 841171 506618 841171 3.77989e-10 -1.0214e-10 1.38967e-10
4 1 Ni 58.71 0 1.8 1.8 3.33294e-29 -4.45778 0 506618 841171 841171 3.3352e-10 2.00112e-10 -4.12557e-11
5 2 Al 26.982 3.6 0 0 6.66587e-29 -5.07076 0 2.39529e+06 2.39529e+06 2.39529e+06 6.30909e-10 6.30995e-10 8.89387e-11
6 1 Ni 58.71 5.4 1.8 0 3.33294e-29 -4.45778 0 841171 841171 506618 3.3352e-11 -1.88995e-10 6.6704e-11
7 1 Ni 58.71 5.4 0 1.8 3.33294e-29 -4.45778 0 841171 506618 841171 -2.00112e-10 9.44973e-11 6.6704e-11
8 1 Ni 58.71 3.6 1.8 1.8 0 -4.45778 0 506618 841171 841171 -1.22464e-10 -1.21943e-10 5.88003e-11
9 2 Al 26.982 7.2 0 0 6.66587e-29 -5.07076 0 2.39529e+06 2.39529e+06 2.39529e+06 -1.64328e-10 3.82158e-11 -0
10 1 Ni 58.71 9 1.8 0 3.33294e-29 -4.45778 0 841171 841171 506618 1.36361e-11 -1.57866e-09 1.50084e-10
11 1 Ni 58.71 9 0 1.8 3.33294e-29 -4.45778 0 841171 506618 841171 -1.46749e-09 -1.11173e-10 1.83436e-10
12 1 Ni 58.71 7.2 1.8 1.8 0 -4.45778 0 506618 841171 841171 6.6704e-11 2.22347e-11 1.43309e-11
13 2 Al 26.982 10.8 0 0 6.66587e-29 -5.07076 0 2.39529e+06 2.39529e+06 2.39529e+06 1.26738e-09 1.1562e-09 3.11285e-10
14 1 Ni 58.71 10.8 1.8 1.8 0 -4.45778 0 506618 841171 841171 -6.6704e-11 -1.11173e-10 2.48403e-11
15 2 Al 26.982 0 3.6 0 6.66587e-29 -5.07076 0 2.39529e+06 2.39529e+06 2.39529e+06 6.22571e-10 -0 6.00336e-10
16 1 Ni 58.71 1.8 5.4 0 3.33294e-29 -4.45778 0 841171 841171 506618 -3.56971e-11 1.72319e-10 -1.16732e-10
17 1 Ni 58.71 1.8 3.6 1.8 0 -4.45778 0 841171 506618 841171 8.89387e-11 1.22725e-10 5.59341e-11
18 1 Ni 58.71 0 5.4 1.8 3.33294e-29 -4.45778 0 506618 841171 841171 -1.33408e-10 2.44581e-10 8.85912e-12
19 2 Al 26.982 3.6 3.6 0 3.33294e-29 -5.07076 0 2.39529e+06 2.39529e+06 2.39529e+06 -5.99294e-10 6.55228e-10 5.1244e-10
20 1 Ni 58.71 5.4 5.4 0 3.33294e-29 -4.45778 0 841171 841171 506618 7.5042e-10 -3.11285e-10 -2.66816e-10
21 1 Ni 58.71 5.4 3.6 1.8 0 -4.45778 0 841171 506618 841171 7.78213e-11 -0 5.55867e-11
22 1 Ni 58.71 3.6 5.4 1.8 0 -4.45778 0 506618 841171 841171 6.6704e-11 -5.52392e-11 1.1291e-11
23 2 Al 26.982 7.2 3.6 0 3.33294e-29 -5.07076 0 2.39529e+06 2.39529e+06 2.39529e+06 7.8299e-11 6.94833e-11 5.08618e-10
24 1 Ni 58.71 9 5.4 0 3.33294e-29 -4.45778 0 841171 841171 506618 -1.3452e-09 -1.45637e-09 -2.00112e-10
25 1 Ni 58.71 9 3.6 1.8 0 -4.45778 0 841171 506618 841171 1.48972e-09 -1.44525e-10 -5.55867e-12
26 1 Ni 58.71 7.2 5.4 1.8 0 -4.45778 0 506618 841171 841171 3.41245e-288 4.44693e-11 -1.11e-10
27 2 Al 26.982 10.8 3.6 0 3.33294e-29 -5.07076 0 2.39529e+06 2.39529e+06 2.39529e+06 -1.35631e-09 1.51196e-09 6.17142e-10
28 1 Ni 58.71 10.8 5.4 1.8 0 -4.45778 0 506618 841171 841171 2.22347e-11 -4.44693e-11 6.78331e-11
29 2 Al 26.982 0 7.2 0 6.66587e-29 -5.07076 0 2.39529e+06 2.39529e+06 2.39529e+06 -8.89387e-11 2.22347e-11 6.6704e-11
30 1 Ni 58.71 1.8 7.2 1.8 0 -4.45778 0 841171 506618 841171 8.89387e-11 1.07525e-10 -5.55867e-11
31 2 Al 26.982 3.6 7.2 0 3.33294e-29 -5.07076 0 2.39529e+06 2.39529e+06 2.39529e+06 8.44222e-11 5.49743e-10 -4.44693e-11
32 1 Ni 58.71 5.4 7.2 1.8 0 -4.45778 0 841171 506618 841171 1.11173e-11 -9.33682e-11 -0
33 2 Al 26.982 7.2 7.2 0 3.33294e-29 -5.07076 0 2.39529e+06 2.39529e+06 2.39529e+06 1.75272e-10 1.16385e-10 -4.44693e-11
34 1 Ni 58.71 9 7.2 1.8 0 -4.45778 0 841171 506618 841171 1.22291e-10 4.44693e-11 -1.11173e-11
35 2 Al 26.982 10.8 7.2 0 3.33294e-29 -5.07076 0 2.39529e+06 2.39529e+06 2.39529e+06 -1.33408e-10 1.46749e-09 -6.6704e-11
36 2 Al 26.982 0 0 3.6 6.66587e-29 -5.07076 0 2.39529e+06 2.39529e+06 2.39529e+06 -2.22347e-11 7.11509e-10 5.78101e-10
37 1 Ni 58.71 1.8 1.8 3.6 0 -4.45778 0 841171 841171 506618 9.7103e-11 8.89387e-11 2.00112e-10
38 1 Ni 58.71 1.8 0 5.4 3.33294e-29 -4.45778 0 841171 506618 841171 2.44581e-10 8.65936e-11 -8.89387e-11
39 1 Ni 58.71 0 1.8 5.4 3.33294e-29 -4.45778 0 506618 841171 841171 2.55699e-10 -4.44693e-11 1.11173e-10
40 2 Al 26.982 3.6 0 3.6 3.33294e-29 -5.07076 0 2.39529e+06 2.39529e+06 2.39529e+06 7.02824e-10 -7.3027e-10 6.22571e-10
41 1 Ni 58.71 5.4 1.8 3.6 0 -4.45778 0 841171 841171 506618 -6.00162e-11 7.78213e-11 2.22347e-10
42 1 Ni 58.71 5.4 0 5.4 3.33294e-29 -4.45778 0 841171 506618 841171 -1.33408e-10 7.11509e-10 -2.00112e-10
43 1 Ni 58.71 3.6 1.8 5.4 0 -4.45778 0 506618 841171 841171 -1.0023e-10 1.98027e-11 9.77109e-11
44 2 Al 26.982 7.2 0 3.6 3.33294e-29 -5.07076 0 2.39529e+06 2.39529e+06 2.39529e+06 -1.64328e-10 2.11924e-11 5.78101e-10
45 1 Ni 58.71 9 1.8 3.6 0 -4.45778 0 841171 841171 506618 1.03964e-10 1.44525e-09 3.3352e-10
46 1 Ni 58.71 9 0 5.4 3.33294e-29 -4.45778 0 841171 506618 841171 -1.57866e-09 -1.33408e-09 5.55867e-12
47 1 Ni 58.71 7.2 1.8 5.4 0 -4.45778 0 506618 841171 841171 -0 2.22347e-11 -6.90491e-11
48 2 Al 26.982 10.8 0 3.6 3.33294e-29 -5.07076 0 2.39529e+06 2.39529e+06 2.39529e+06 1.56754e-09 -1.35631e-09 4.22459e-10
49 1 Ni 58.71 10.8 1.8 5.4 0 -4.45778 0 506618 841171 841171 -1.11173e-10 -1.11173e-10 6.6704e-11
50 2 Al 26.982 0 3.6 3.6 3.33294e-29 -5.07076 0 2.39529e+06 2.39529e+06 2.39529e+06 6.22571e-10 6.6704e-10 -7.11509e-10
51 1 Ni 58.71 1.8 5.4 3.6 0 -4.45778 0 841171 841171 506618 1.04225e-11 6.6704e-11 6.98307e-11
52 1 Ni 58.71 1.8 3.6 5.4 0 -4.45778 0 841171 506618 841171 -0 1.55643e-10 -2.22347e-11
53 1 Ni 58.71 0 5.4 5.4 3.33294e-29 -4.45778 0 506618 841171 841171 -2.00112e-10 -2.22347e-10 7.33744e-10
54 2 Al 26.982 3.6 3.6 3.6 0 -5.07076 0 2.39529e+06 2.39529e+06 2.39529e+06 -6.71209e-10 -7.11857e-10 -6.47237e-10
55 1 Ni 58.71 5.4 5.4 3.6 0 -4.45778 0 841171 841171 506618 4.44693e-10 6.6704e-11 8.89387e-11
56 1 Ni 58.71 5.4 3.6 5.4 0 -4.45778 0 841171 506618 841171 1.00056e-10 6.22571e-10 4.44693e-11
57 1 Ni 58.71 3.6 5.4 5.4 0 -4.45778 0 506618 841171 841171 -1.11173e-11 4.75961e-11 6.22571e-10
58 2 Al 26.982 7.2 3.6 3.6 0 -5.07076 0 2.39529e+06 2.39529e+06 2.39529e+06 1.81959e-11 9.5887e-11 -6.3751e-10
59 1 Ni 58.71 9 5.4 3.6 0 -4.45778 0 841171 841171 506618 -1.22291e-09 1.53419e-09 1.98027e-11
60 1 Ni 58.71 9 3.6 5.4 0 -4.45778 0 841171 506618 841171 1.43657e-09 -1.22291e-09 6.11453e-11
61 1 Ni 58.71 7.2 5.4 5.4 0 -4.45778 0 506618 841171 841171 -2.22347e-11 -1.11173e-10 9.33856e-10
62 2 Al 26.982 10.8 3.6 3.6 0 -5.07076 0 2.39529e+06 2.39529e+06 2.39529e+06 -1.38202e-09 -1.40426e-09 -6.89275e-10
63 1 Ni 58.71 10.8 5.4 5.4 0 -4.45778 0 506618 841171 841171 -6.6704e-11 -6.6704e-11 5.33632e-10
64 2 Al 26.982 0 7.2 3.6 3.33294e-29 -5.07076 0 2.39529e+06 2.39529e+06 2.39529e+06 -0 7.11509e-10 -0
65 1 Ni 58.71 1.8 7.2 5.4 0 -4.45778 0 841171 506618 841171 5.55867e-11 -1.11173e-11 -1.05615e-10
66 2 Al 26.982 3.6 7.2 3.6 0 -5.07076 0 2.39529e+06 2.39529e+06 2.39529e+06 5.94082e-11 -6.22223e-10 3.82158e-11
67 1 Ni 58.71 5.4 7.2 5.4 0 -4.45778 0 841171 506618 841171 -3.3352e-11 8.06007e-10 -4.44693e-11
68 2 Al 26.982 7.2 7.2 3.6 0 -5.07076 0 2.39529e+06 2.39529e+06 2.39529e+06 2.0515e-10 1.77182e-11 3.26572e-11
69 1 Ni 58.71 9 7.2 5.4 0 -4.45778 0 841171 506618 841171 7.78213e-11 -1.31185e-09 -1.38967e-10
70 2 Al 26.982 10.8 7.2 3.6 0 -5.07076 0 2.39529e+06 2.39529e+06 2.39529e+06 -0 -1.46054e-09 4.44693e-11
71 2 Al 26.982 0 0 7.2 6.66587e-29 -5.07076 0 2.39529e+06 2.39529e+06 2.39529e+06 2.00112e-10 -4.44693e-11 -0
72 1 Ni 58.71 1.8 1.8 7.2 0 -4.45778 0 841171 841171 506618 1.41572e-10 -4.44693e-11 4.44693e-11
73 2 Al 26.982 3.6 0 7.2 3.33294e-29 -5.07076 0 2.39529e+06 2.39529e+06 2.39529e+06 5.95125e-10 3.30046e-11 1.77877e-10
74 1 Ni 58.71 5.4 1.8 7.2 0 -4.45778 0 841171 841171 506618 -1.04486e-10 3.89107e-11 1.11173e-10
75 2 Al 26.982 7.2 0 7.2 3.33294e-29 -5.07076 0 2.39529e+06 2.39529e+06 2.39529e+06 1.49389e-11 2.36938e-10 -0
76 1 Ni 58.71 9 1.8 7.2 0 -4.45778 0 841171 841171 506618 3.76079e-11 6.6704e-11 2.00112e-10
77 2 Al 26.982 10.8 0 7.2 3.33294e-29 -5.07076 0 2.39529e+06 2.39529e+06 2.39529e+06 9.78325e-10 -4.44693e-11 1.77877e-10
78 2 Al 26.982 0 3.6 7.2 3.33294e-29 -5.07076 0 2.39529e+06 2.39529e+06 2.39529e+06 6.89275e-10 1.77877e-10 -1.11173e-11
79 1 Ni 58.71 1.8 5.4 7.2 0 -4.45778 0 841171 841171 506618 -5.62815e-11 8.89387e-11 6.12322e-11
80 2 Al 26.982 3.6 3.6 7.2 0 -5.07076 0 2.39529e+06 2.39529e+06 2.39529e+06 -6.27434e-10 3.82158e-12 -9.03283e-12
81 1 Ni 58.71 5.4 5.4 7.2 0 -4.45778 0 841171 841171 506618 9.33856e-10 5.0028e-11 5.80186e-11
82 2 Al 26.982 7.2 3.6 7.2 0 -5.07076 0 2.39529e+06 2.39529e+06 2.39529e+06 4.94634e-11 1.94032e-10 -1.0353e-10
83 1 Ni 58.71 9 5.4 7.2 0 -4.45778 0 841171 841171 506618 -1.56754e-09 8.89387e-11 3.89975e-11
84 2 Al 26.982 10.8 3.6 7.2 0 -5.07076 0 2.39529e+06 2.39529e+06 2.39529e+06 -1.1562e-09 -8.89387e-11 1.33408e-10
85 2 Al 26.982 0 7.2 7.2 3.33294e-29 -5.07076 0 2.39529e+06 2.39529e+06 2.39529e+06 6.6704e-11 1.33408e-10 2.77933e-10
86 2 Al 26.982 3.6 7.2 7.2 0 -5.07076 0 2.39529e+06 2.39529e+06 2.39529e+06 -3.61313e-11 3.82158e-12 3.11285e-10
87 2 Al 26.982 7.2 7.2 7.2 0 -5.07076 0 2.39529e+06 2.39529e+06 2.39529e+06 1.37924e-10 2.66859e-10 3.11285e-10
88 2 Al 26.982 10.8 7.2 7.2 0 -5.07076 0 2.39529e+06 2.39529e+06 2.39529e+06 2.89051e-10 -4.44693e-11 2.22347e-10
89 1 Ni 58.71 1.8 0 9 3.33294e-29 -4.45778 0 841171 506618 841171 2.00112e-10 -5.55867e-11 -1.4119e-09
90 1 Ni 58.71 0 1.8 9 3.33294e-29 -4.45778 0 506618 841171 841171 2.89051e-10 -1.52307e-09 -4.44693e-11
91 1 Ni 58.71 5.4 0 9 3.33294e-29 -4.45778 0 841171 506618 841171 -1.00056e-10 -1.42302e-09 -1.28961e-09
92 1 Ni 58.71 3.6 1.8 9 0 -4.45778 0 506618 841171 841171 -6.63566e-11 1.48972e-09 -1.11173e-10
93 1 Ni 58.71 9 0 9 3.33294e-29 -4.45778 0 841171 506618 841171 -1.55643e-09 6.6704e-10 -1.45637e-09
94 1 Ni 58.71 7.2 1.8 9 0 -4.45778 0 506618 841171 841171 -1.11173e-11 -8.338e-11 1.77877e-10
95 1 Ni 58.71 10.8 1.8 9 0 -4.45778 0 506618 841171 841171 -6.6704e-11 1.7343e-09 -8.89387e-11
96 1 Ni 58.71 1.8 3.6 9 0 -4.45778 0 841171 506618 841171 5.55867e-11 1.11173e-11 1.43969e-09
97 1 Ni 58.71 0 5.4 9 3.33294e-29 -4.45778 0 506618 841171 841171 -1.55643e-10 -1.3452e-09 -1.37855e-09
98 1 Ni 58.71 5.4 3.6 9 0 -4.45778 0 841171 506618 841171 3.89107e-11 -1.23402e-09 1.35631e-09
99 1 Ni 58.71 3.6 5.4 9 0 -4.45778 0 506618 841171 841171 5.31547e-11 1.40634e-09 -1.24514e-09
100 1 Ni 58.71 9 3.6 9 0 -4.45778 0 841171 506618 841171 1.47548e-09 6.00336e-10 1.49528e-09
101 1 Ni 58.71 7.2 5.4 9 0 -4.45778 0 506618 841171 841171 -2.22347e-11 -9.44973e-11 -1.42302e-09
102 1 Ni 58.71 10.8 5.4 9 0 -4.45778 0 506618 841171 841171 -7.78213e-11 1.59534e-09 -1.22291e-09
103 1 Ni 58.71 1.8 7.2 9 0 -4.45778 0 841171 506618 841171 6.6704e-11 7.78213e-11 -1.22291e-10
104 1 Ni 58.71 5.4 7.2 9 0 -4.45778 0 841171 506618 841171 2.22347e-11 -1.46957e-09 1.77877e-10
105 1 Ni 58.71 9 7.2 9 0 -4.45778 0 841171 506618 841171 6.6704e-11 6.22571e-10 1.00056e-10
106 2 Al 26.982 0 0 10.8 6.66587e-29 -5.07076 0 2.39529e+06 2.39529e+06 2.39529e+06 8.89387e-11 1.51196e-09 1.50084e-09
107 1 Ni 58.71 1.8 1.8 10.8 0 -4.45778 0 841171 841171 506618 -1.38098e-11 -2.98778e-11 4.17769e-11
108 1 Ni 58.71 1.8 0 12.6 8.38165e-29 -4.45778 0 841171 506618 841171 1.22291e-10 4.00224e-10 -1.41746e-09
109 1 Ni 58.71 0 1.8 12.6 8.38165e-29 -4.45778 0 506618 841171 841171 1.11173e-10 -1.46749e-09 3.66872e-10
110 2 Al 26.982 3.6 0 10.8 3.33294e-29 -5.07076 0 2.39529e+06 2.39529e+06 2.39529e+06 6.4689e-10 -1.2583e-09 1.55643e-09
111 1 Ni 58.71 5.4 1.8 10.8 0 -4.45778 0 841171 841171 506618 5.0028e-11 6.11453e-11 2.74459e-11
112 1 Ni 58.71 5.4 0 12.6 8.38165e-29 -4.45778 0 841171 506618 841171 -2.22347e-10 -1.14647e-11 -1.51196e-09
113 1 Ni 58.71 3.6 1.8 12.6 5.04871e-29 -4.45778 0 506618 841171 841171 -1.8361e-10 1.48416e-09 3.3352e-10
114 2 Al 26.982 7.2 0 10.8 3.33294e-29 -5.07076 0 2.39529e+06 2.39529e+06 2.39529e+06 -7.29575e-12 -8.30326e-11 1.28961e-09
115 1 Ni 58.71 9 1.8 10.8 0 -4.45778 0 841171 841171 506618 -1.53124e-10 1.46749e-09 7.51289e-11
116 1 Ni 58.71 9 0 12.6 8.38165e-29 -4.45778 0 841171 506618 841171 -1.48972e-09 -1.37855e-09 -1.47305e-09
117 1 Ni 58.71 7.2 1.8 12.6 5.04871e-29 -4.45778 0 506618 841171 841171 -1.69366e-11 -2.22347e-11 3.55755e-10
118 2 Al 26.982 10.8 0 10.8 3.33294e-29 -5.07076 0 2.39529e+06 2.39529e+06 2.39529e+06 1.33408e-09 -1.68983e-09 1.31185e-09
119 1 Ni 58.71 10.8 1.8 12.6 5.04871e-29 -4.45778 0 506618 841171 841171 -1.55643e-10 1.76766e-09 4.00224e-10
120 2 Al 26.982 0 3.6 10.8 3.33294e-29 -5.07076 0 2.39529e+06 2.39529e+06 2.39529e+06 7.11509e-10 1.42302e-09 -1.29235e-09
121 1 Ni 58.71 1.8 5.4 10.8 0 -4.45778 0 841171 841171 506618 9.44973e-11 3.47417e-12 4.98543e-11
122 1 Ni 58.71 1.8 3.6 12.6 5.04871e-29 -4.45778 0 841171 506618 841171 2.22347e-11 1.00056e-10 1.5731e-09
123 1 Ni 58.71 0 5.4 12.6 8.38165e-29 -4.45778 0 506618 841171 841171 -3.00168e-10 -1.7343e-09 -1.00056e-10
124 2 Al 26.982 3.6 3.6 10.8 0 -5.07076 0 2.39529e+06 2.39529e+06 2.39529e+06 -7.28533e-10 -1.27645e-09 -1.31306e-09
125 1 Ni 58.71 5.4 5.4 10.8 0 -4.45778 0 841171 841171 506618 4.05783e-10 -1.33408e-10 -1.98896e-11
126 1 Ni 58.71 5.4 3.6 12.6 5.04871e-29 -4.45778 0 841171 506618 841171 2.22347e-11 1.78225e-10 1.35076e-09
127 1 Ni 58.71 3.6 5.4 12.6 5.04871e-29 -4.45778 0 506618 841171 841171 1.22291e-10 1.42302e-09 1.33755e-10
128 2 Al 26.982 7.2 3.6 10.8 0 -5.07076 0 2.39529e+06 2.39529e+06 2.39529e+06 -6.77462e-12 -1.55816e-10 -1.47079e-09
129 1 Ni 58.71 9 5.4 10.8 0 -4.45778 0 841171 841171 506618 -1.25626e-09 1.3452e-09 3.3352e-11
130 1 Ni 58.71 9 3.6 12.6 5.04871e-29 -4.45778 0 841171 506618 841171 1.61201e-09 -1.50084e-09 1.52863e-09
131 1 Ni 58.71 7.2 5.4 12.6 5.04871e-29 -4.45778 0 506618 841171 841171 7.78213e-11 -1.00056e-10 -1.7753e-10
132 2 Al 26.982 10.8 3.6 10.8 0 -5.07076 0 2.39529e+06 2.39529e+06 2.39529e+06 -1.40634e-09 -2.04559e-09 -1.43414e-09
133 1 Ni 58.71 10.8 5.4 12.6 5.04871e-29 -4.45778 0 506618 841171 841171 1.6676e-11 1.62313e-09 -0
134 2 Al 26.982 0 7.2 10.8 3.33294e-29 -5.07076 0 2.39529e+06 2.39529e+06 2.39529e+06 -0 1.20067e-09 -0
135 1 Ni 58.71 1.8 7.2 12.6 5.04871e-29 -4.45778 0 841171 506618 841171 1.22291e-10 1.44525e-10 1.83436e-10
136 2 Al 26.982 3.6 7.2 10.8 0 -5.07076 0 2.39529e+06 2.39529e+06 2.39529e+06 1.94553e-11 -1.41194e-09 -0
137 1 Ni 58.71 5.4 7.2 12.6 5.04871e-29 -4.45778 0 841171 506618 841171 5.55867e-11 -1.33061e-10 -1.00056e-10
138 2 Al 26.982 7.2 7.2 10.8 0 -5.07076 0 2.39529e+06 2.39529e+06 2.39529e+06 2.32422e-10 1.66673e-10 2.66816e-10
139 1 Ni 58.71 9 7.2 12.6 5.04871e-29 -4.45778 0 841171 506618 841171 3.3352e-11 -1.3452e-09 -5.0028e-11
140 2 Al 26.982 10.8 7.2 10.8 0 -5.07076 0 2.39529e+06 2.39529e+06 2.39529e+06 -8.89387e-11 -2.179e-09 -3.3352e-11
141 2 Al 26.982 0 0 14.4 1.17146e-28 -5.07076 0 2.39529e+06 2.39529e+06 2.39529e+06 8.89387e-11 1.37855e-09 1.22291e-09
142 1 Ni 58.71 1.8 1.8 14.4 5.04871e-29 -4.45778 0 841171 841171 506618 -2.69248e-12 -1.02401e-10 -6.90491e-11
143 1 Ni 58.71 1.8 0 16.2 3.33294e-29 -4.45778 0 841171 506618 841171 1.22291e-10 4.44693e-10 -1.46193e-09
144 1 Ni 58.71 0 1.8 16.2 3.33294e-29 -4.45778 0 506618 841171 841171 1.11173e-10 -1.46749e-09 3.89107e-10
145 2 Al 26.982 3.6 0 14.4 8.38165e-29 -5.07076 0 2.39529e+06 2.39529e+06 2.39529e+06 6.69472e-10 -1.29869e-09 1.28961e-09
146 1 Ni 58.71 5.4 1.8 14.4 5.04871e-29 -4.45778 0 841171 841171 506618 4.44693e-11 3.89107e-11 -5.0028e-11
147 1 Ni 58.71 5.4 0 16.2 3.33294e-29 -4.45778 0 841171 506618 841171 -2.66816e-10 1.6676e-11 -1.51196e-09
148 1 Ni 58.71 3.6 1.8 16.2 0 -4.45778 0 506618 841171 841171 -1.61375e-10 1.42858e-09 2.89051e-10
149 2 Al 26.982 7.2 0 14.4 8.38165e-29 -5.07076 0 2.39529e+06 2.39529e+06 2.39529e+06 -8.65067e-11 -8.02532e-11 1.11173e-09
150 1 Ni 58.71 9 1.8 14.4 5.04871e-29 -4.45778 0 841171 841171 506618 -1.30889e-10 1.48972e-09 -2.34506e-12
151 1 Ni 58.71 9 0 16.2 3.33294e-29 -4.45778 0 841171 506618 841171 -1.48972e-09 -1.24514e-09 -1.56199e-09
152 1 Ni 58.71 7.2 1.8 16.2 0 -4.45778 0 506618 841171 841171 2.75328e-11 4.44693e-11 3.77989e-10
153 2 Al 26.982 10.8 0 14.4 8.38165e-29 -5.07076 0 2.39529e+06 2.39529e+06 2.39529e+06 1.13397e-09 -1.42302e-09 1.18955e-09
154 1 Ni 58.71 10.8 1.8 16.2 0 -4.45778 0 506618 841171 841171 -1.55643e-10 1.74542e-09 4.00224e-10
155 2 Al 26.982 0 3.6 14.4 8.38165e-29 -5.07076 0 2.39529e+06 2.39529e+06 2.39529e+06 6.44805e-10 1.37855e-09 -1.26738e-09
156 1 Ni 58.71 1.8 5.4 14.4 5.04871e-29 -4.45778 0 841171 841171 506618 7.22627e-11 -7.90373e-12 1.27849e-10
157 1 Ni 58.71 1.8 3.6 16.2 0 -4.45778 0 841171 506618 841171 1.55643e-10 -3.3352e-11 1.5064e-09
158 1 Ni 58.71 0 5.4 16.2 3.33294e-29 -4.45778 0 506618 841171 841171 -2.22347e-10 -1.55643e-09 -4.44693e-11
159 2 Al 26.982 3.6 3.6 14.4 5.04871e-29 -5.07076 0 2.39529e+06 2.39529e+06 2.39529e+06 -7.35134e-10 -1.29869e-09 -1.26425e-09
160 1 Ni 58.71 5.4 5.4 14.4 5.04871e-29 -4.45778 0 841171 841171 506618 4.22459e-10 -1.6676e-11 4.44693e-11
161 1 Ni 58.71 5.4 3.6 16.2 0 -4.45778 0 841171 506618 841171 7.78213e-11 1.6676e-10 1.5064e-09
162 1 Ni 58.71 3.6 5.4 16.2 0 -4.45778 0 506618 841171 841171 1.00056e-10 1.44525e-09 1.24809e-10
163 2 Al 26.982 7.2 3.6 14.4 5.04871e-29 -5.07076 0 2.39529e+06 2.39529e+06 2.39529e+06 -6.51406e-13 -1.35492e-11 -1.35249e-09
164 1 Ni 58.71 9 5.4 14.4 5.04871e-29 -4.45778 0 841171 841171 506618 -1.16732e-09 1.52307e-09 4.44693e-11
165 1 Ni 58.71 9 3.6 16.2 0 -4.45778 0 841171 506618 841171 1.53419e-09 -1.40078e-09 1.5064e-09
166 1 Ni 58.71 7.2 5.4 16.2 0 -4.45778 0 506618 841171 841171 2.22347e-11 -8.89387e-11 -8.59856e-12
167 2 Al 26.982 10.8 3.6 14.4 5.04871e-29 -5.07076 0 2.39529e+06 2.39529e+06 2.39529e+06 -1.35631e-09 -1.6009e-09 -1.36878e-09
168 1 Ni 58.71 10.8 5.4 16.2 0 -4.45778 0 506618 841171 841171 -1.11173e-11 1.71207e-09 -2.22347e-11
169 2 Al 26.982 0 7.2 14.4 8.38165e-29 -5.07076 0 2.39529e+06 2.39529e+06 2.39529e+06 -6.6704e-11 1.1562e-09 -2.22347e-11
170 1 Ni 58.71 1.8 7.2 16.2 0 -4.45778 0 841171 506618 841171 1.22291e-10 1.33408e-10 1.27849e-10
171 2 Al 26.982 3.6 7.2 14.4 5.04871e-29 -5.07076 0 2.39529e+06 2.39529e+06 2.39529e+06 4.75961e-11 -1.35909e-09 -8.89387e-11
172 1 Ni 58.71 5.4 7.2 16.2 0 -4.45778 0 841171 506618 841171 5.55867e-11 7.78213e-11 -2.00112e-10
173 2 Al 26.982 7.2 7.2 14.4 5.04871e-29 -5.07076 0 2.39529e+06 2.39529e+06 2.39529e+06 2.26863e-10 1.88995e-10 3.11285e-10
174 1 Ni 58.71 9 7.2 16.2 0 -4.45778 0 841171 506618 841171 3.3352e-11 -1.3452e-09 -1.16732e-10
175 2 Al 26.982 10.8 7.2 14.4 5.04871e-29 -5.07076 0 2.39529e+06 2.39529e+06 2.39529e+06 -0 -1.77877e-09 -3.3352e-11
176 2 Al 26.982 0 0 18 6.66587e-29 -5.07076 0 2.39529e+06 2.39529e+06 2.39529e+06 1.33408e-10 2.22347e-11 -8.89387e-11
177 1 Ni 58.71 1.8 1.8 18 0 -4.45778 0 841171 841171 506618 2.01502e-11 1.55643e-10 -2.22347e-11
178 1 Ni 58.71 1.8 0 19.8 3.33294e-29 -4.45778 0 841171 506618 841171 4.44693e-10 -1.02488e-11 4.44693e-11
179 1 Ni 58.71 0 1.8 19.8 3.33294e-29 -4.45778 0 506618 841171 841171 2.66816e-10 -0 -3.85632e-11
180 2 Al 26.982 3.6 0 18 3.33294e-29 -5.07076 0 2.39529e+06 2.39529e+06 2.39529e+06 6.0381e-10 1.25939e-12 -8.89387e-11
181 1 Ni 58.71 5.4 1.8 18 0 -4.45778 0 841171 841171 506618 1.27849e-10 -3.3352e-11 -0
182 1 Ni 58.71 5.4 0 19.8 3.33294e-29 -4.45778 0 841171 506618 841171 -2.00112e-10 -2.22347e-11 2.22347e-11
183 1 Ni 58.71 3.6 1.8 19.8 0 -4.45778 0 506618 841171 841171 -2.33638e-10 -3.3352e-11 6.70514e-11
184 2 Al 26.982 7.2 0 18 3.33294e-29 -5.07076 0 2.39529e+06 2.39529e+06 2.39529e+06 -1.33061e-10 -2.44581e-10 -0
185 1 Ni 58.71 9 1.8 18 0 -4.45778 0 841171 841171 506618 -1.698e-10 -8.89387e-11 -8.89387e-11
186 1 Ni 58.71 9 0 19.8 3.33294e-29 -4.45778 0 841171 506618 841171 -1.71207e-09 4.44693e-11 -2.22347e-11
187 1 Ni 58.71 7.2 1.8 19.8 0 -4.45778 0 506618 841171 841171 -1.11173e-11 -2.22347e-11 4.49036e-11
188 2 Al 26.982 10.8 0 18 3.33294e-29 -5.07076 0 2.39529e+06 2.39529e+06 2.39529e+06 1.48972e-09 3.55755e-10 -6.6704e-11
189 1 Ni 58.71 10.8 1.8 19.8 0 -4.45778 0 506618 841171 841171 -0 -3.3352e-11 -9.55396e-12
190 2 Al 26.982 0 3.6 18 3.33294e-29 -5.07076 0 2.39529e+06 2.39529e+06 2.39529e+06 6.6704e-10 -1.55643e-10 2.22347e-11
191 1 Ni 58.71 1.8 5.4 18 0 -4.45778 0 841171 841171 506618 2.08884e-10 1.6676e-11 8.89387e-11
192 1 Ni 58.71 1.8 3.6 19.8 0 -4.45778 0 841171 506618 841171 -1.33408e-10 1.19859e-10 -6.6704e-11
193 1 Ni 58.71 0 5.4 19.8 3.33294e-29 -4.45778 0 506618 841171 841171 -2.66816e-10 2.22347e-11 3.68262e-11
194 2 Al 26.982 3.6 3.6 18 0 -5.07076 0 2.39529e+06 2.39529e+06 2.39529e+06 -6.5488e-10 -4.96806e-11 -1.14647e-10
195 1 Ni 58.71 5.4 5.4 18 0 -4.45778 0 841171 841171 506618 3.72431e-10 2.77933e-11 2.22347e-11
196 1 Ni 58.71 5.4 3.6 19.8 0 -4.45778 0 841171 506618 841171 2.55699e-10 -2.22347e-11 3.3352e-11
197 1 Ni 58.71 3.6 5.4 19.8 0 -4.45778 0 506618 841171 841171 2.00112e-10 2.22347e-11 4.44693e-11
198 2 Al 26.982 7.2 3.6 18 0 -5.07076 0 2.39529e+06 2.39529e+06 2.39529e+06 1.41442e-10 -1.86215e-10 1.77182e-11
199 1 Ni 58.71 9 5.4 18 0 -4.45778 0 841171 841171 506618 -1.13397e-09 -8.89387e-11 -3.3352e-11
200 1 Ni 58.71 9 3.6 19.8 0 -4.45778 0 841171 506618 841171 1.48972e-09 -7.78213e-11 4.44693e-11
201 1 Ni 58.71 7.2 5.4 19.8 0 -4.45778 0 506618 841171 841171 -1.11173e-10 1.11173e-11 7.78213e-11
202 2 Al 26.982 10.8 3.6 18 0 -5.07076 0 2.39529e+06 2.39529e+06 2.39529e+06 -1.37855e-09 4.00224e-10 8.72884e-12
203 1 Ni 58.71 10.8 5.4 19.8 0 -4.45778 0 506618 841171 841171 8.89387e-11 -1.77877e-10 -2.18004e-11
204 2 Al 26.982 0 7.2 18 3.33294e-29 -5.07076 0 2.39529e+06 2.39529e+06 2.39529e+06 -1.55643e-10 -1.33408e-10 -2.22347e-10
205 1 Ni 58.71 1.8 7.2 19.8 0 -4.45778 0 841171 506618 841171 -0 1.5269e-10 -3.3352e-11
206 2 Al 26.982 3.6 7.2 18 0 -5.07076 0 2.39529e+06 2.39529e+06 2.39529e+06 9.51922e-11 -7.25232e-12 -2.66816e-10
207 1 Ni 58.71 5.4 7.2 19.8 0 -4.45778 0 841171 506618 841171 -1.11173e-10 -5.0636e-11 -2.22347e-11
208 2 Al 26.982 7.2 7.2 18 0 -5.07076 0 2.39529e+06 2.39529e+06 2.39529e+06 1.86736e-10 -2.38675e-10 -8.89387e-11
209 1 Ni 58.71 9 7.2 19.8 0 -4.45778 0 841171 506618 841171 2.55699e-10 -7.78213e-11 5.55867e-11
210 2 Al 26.982 10.8 7.2 18 0 -5.07076 0 2.39529e+06 2.39529e+06 2.39529e+06 -4.44693e-11 4.00224e-10 -2.55699e-10
211 2 Al 26.982 0 0 21.6 6.66587e-29 -5.07076 0 2.39529e+06 2.39529e+06 2.39529e+06 6.6704e-11 -0 6.6704e-11
212 1 Ni 58.71 1.8 1.8 21.6 0 -4.45778 0 841171 841171 506618 4.15163e-11 1.33408e-10 2.11229e-10
213 1 Ni 58.71 1.8 0 23.4 2.35278e-28 -4.45778 0 841171 506618 841171 3.55755e-10 -1.08047e-10 4.89163e-10
214 1 Ni 58.71 0 1.8 23.4 2.35278e-28 -4.45778 0 506618 841171 841171 3.77989e-10 4.44693e-10 -1.11173e-10
215 2 Al 26.982 3.6 0 21.6 3.33294e-29 -5.07076 0 2.39529e+06 2.39529e+06 2.39529e+06 6.98655e-10 2.77933e-12 4.44693e-11
216 1 Ni 58.71 5.4 1.8 21.6 0 -4.45778 0 841171 841171 506618 1.28978e-10 5.0028e-11 3.11285e-10
217 1 Ni 58.71 5.4 0 23.4 2.35278e-28 -4.45778 0 841171 506618 841171 -2.00112e-10 7.17068e-10 4.89163e-10
218 1 Ni 58.71 3.6 1.8 23.4 2.01948e-28 -4.45778 0 506618 841171 841171 -1.89168e-10 -1.38107e-09 -1.30281e-10
219 2 Al 26.982 7.2 0 21.6 3.33294e-29 -5.07076 0 2.39529e+06 2.39529e+06 2.39529e+06 -9.93612e-11 2.6091e-10 -8.89387e-11
220 1 Ni 58.71 9 1.8 21.6 0 -4.45778 0 841171 841171 506618 -1.73969e-10 -4.44693e-11 4.66928e-10
221 1 Ni 58.71 9 0 23.4 2.35278e-28 -4.45778 0 841171 506618 841171 -1.64537e-09 6.00336e-10 4.50252e-10
222 1 Ni 58.71 7.2 1.8 23.4 2.01948e-28 -4.45778 0 506618 841171 841171 -0 4.44693e-11 -1.19164e-10
223 2 Al 26.982 10.8 0 21.6 3.33294e-29 -5.07076 0 2.39529e+06 2.39529e+06 2.39529e+06 1.55643e-09 8.89387e-11 -6.6704e-11
224 1 Ni 58.71 10.8 1.8 23.4 2.01948e-28 -4.45778 0 506618 841171 841171 -8.89387e-11 -1.82324e-09 -6.6704e-11
225 2 Al 26.982 0 3.6 21.6 3.33294e-29 -5.07076 0 2.39529e+06 2.39529e+06 2.39529e+06 5.55867e-10 2.22347e-11 -6.6704e-11
226 1 Ni 58.71 1.8 5.4 21.6 0 -4.45778 0 841171 841171 506618 1.7892e-10 1.55643e-10 1.42441e-11
227 1 Ni 58.71 1.8 3.6 23.4 2.01948e-28 -4.45778 0 841171 506618 841171 1.11173e-11 2.22347e-11 -1.61201e-09
228 1 Ni 58.71 0 5.4 23.4 2.35278e-28 -4.45778 0 506618 841171 841171 -2.00112e-10 4.44693e-10 6.78157e-10
229 2 Al 26.982 3.6 3.6 21.6 0 -5.07076 0 2.39529e+06 2.39529e+06 2.39529e+06 -6.51754e-10 -3.16149e-11 -3.43942e-11
230 1 Ni 58.71 5.4 5.4 21.6 0 -4.45778 0 841171 841171 506618 3.11285e-10 3.89107e-11 -1.22291e-10
231 1 Ni 58.71 5.4 3.6 23.4 2.01948e-28 -4.45778 0 841171 506618 841171 5.55867e-11 6.44805e-10 -1.38967e-09
232 1 Ni 58.71 3.6 5.4 23.4 2.01948e-28 -4.45778 0 506618 841171 841171 4.44693e-11 -1.49224e-09 6.44805e-10
233 2 Al 26.982 7.2 3.6 21.6 0 -5.07076 0 2.39529e+06 2.39529e+06 2.39529e+06 1.66109e-10 2.83839e-10 1.20206e-10
234 1 Ni 58.71 9 5.4 21.6 0 -4.45778 0 841171 841171 506618 -1.16732e-09 1.33408e-10 -2.0237e-10
235 1 Ni 58.71 9 3.6 23.4 2.01948e-28 -4.45778 0 841171 506618 841171 1.44769e-09 6.00336e-10 -1.61201e-09
236 1 Ni 58.71 7.2 5.4 23.4 2.01948e-28 -4.45778 0 506618 841171 841171 -1.55643e-10 4.44693e-11 5.33632e-10
237 2 Al 26.982 10.8 3.6 21.6 0 -5.07076 0 2.39529e+06 2.39529e+06 2.39529e+06 -1.54184e-09 4.03003e-11 -0
238 1 Ni 58.71 10.8 5.4 23.4 2.01948e-28 -4.45778 0 506618 841171 841171 2.22347e-11 -1.64537e-09 6.44805e-10
239 2 Al 26.982 0 7.2 21.6 3.33294e-29 -5.07076 0 2.39529e+06 2.39529e+06 2.39529e+06 -2.00112e-10 1.55643e-10 3.55755e-10
240 1 Ni 58.71 1.8 7.2 23.4 2.01948e-28 -4.45778 0 841171 506618 841171 1.33408e-10 1.11173e-10 -1.44525e-10
241 2 Al 26.982 3.6 7.2 21.6 0 -5.07076 0 2.39529e+06 2.39529e+06 2.39529e+06 1.05615e-10 -3.54365e-11 2.47013e-10
242 1 Ni 58.71 5.4 7.2 23.4 2.01948e-28 -4.45778 0 841171 506618 841171 -1.6676e-10 6.33688e-10 1.33408e-10
243 2 Al 26.982 7.2 7.2 21.6 0 -5.07076 0 2.39529e+06 2.39529e+06 2.39529e+06 1.54991e-10 1.30281e-10 2.17135e-10
244 1 Ni 58.71 9 7.2 23.4 2.01948e-28 -4.45778 0 841171 506618 841171 2.33464e-10 7.11509e-10 8.89387e-11
245 2 Al 26.982 10.8 7.2 21.6 0 -5.07076 0 2.39529e+06 2.39529e+06 2.39529e+06 -1.11173e-10 -8.19903e-11 4.44693e-11
246 2 Al 26.982 0 0 25.2 2.68607e-28 -5.07076 0 2.39529e+06 2.39529e+06 2.39529e+06 8.89387e-11 -5.33632e-10 -6.44805e-10
247 1 Ni 58.71 1.8 1.8 25.2 2.01948e-28 -4.45778 0 841171 841171 506618 1.86042e-10 1.33408e-10 2.22347e-10
248 2 Al 26.982 3.6 0 25.2 2.35278e-28 -5.07076 0 2.39529e+06 2.39529e+06 2.39529e+06 6.4689e-10 1.2573e-09 -7.55979e-10
249 1 Ni 58.71 5.4 1.8 25.2 2.01948e-28 -4.45778 0 841171 841171 506618 3.37863e-11 -7.72655e-10 2.89051e-10
250 2 Al 26.982 7.2 0 25.2 2.35278e-28 -5.07076 0 2.39529e+06 2.39529e+06 2.39529e+06 -2.24779e-10 -1.29934e-10 -6.6704e-10
251 1 Ni 58.71 9 1.8 25.2 2.01948e-28 -4.45778 0 841171 841171 506618 -1.74316e-10 -7.11509e-10 3.3352e-10
252 2 Al 26.982 10.8 0 25.2 2.35278e-28 -5.07076 0 2.39529e+06 2.39529e+06 2.39529e+06 1.35631e-09 1.24514e-09 -8.00448e-10
253 2 Al 26.982 0 3.6 25.2 2.35278e-28 -5.07076 0 2.39529e+06 2.39529e+06 2.39529e+06 7.11509e-10 -7.11509e-10 1.11173e-09
254 1 Ni 58.71 1.8 5.4 25.2 2.01948e-28 -4.45778 0 841171 841171 506618 2.27905e-10 2.22347e-10 -8.36319e-10
255 2 Al 26.982 3.6 3.6 25.2 2.01948e-28 -5.07076 0 2.39529e+06 2.39529e+06 2.39529e+06 -6.22571e-10 1.20797e-09 1.3115e-09
256 1 Ni 58.71 5.4 5.4 25.2 2.01948e-28 -4.45778 0 841171 841171 506618 3.77989e-10 -8.00448e-10 -7.9819e-10
257 2 Al 26.982 7.2 3.6 25.2 2.01948e-28 -5.07076 0 2.39529e+06 2.39529e+06 2.39529e+06 1.21726e-10 -2.8397e-10 1.15238e-09
258 1 Ni 58.71 9 5.4 25.2 2.01948e-28 -4.45778 0 841171 841171 506618 -1.1562e-09 -7.33744e-10 -8.19816e-10
259 2 Al 26.982 10.8 3.6 25.2 2.01948e-28 -5.07076 0 2.39529e+06 2.39529e+06 2.39529e+06 -1.54531e-09 1.53419e-09 1.27849e-09
260 2 Al 26.982 0 7.2 25.2 2.35278e-28 -5.07076 0 2.39529e+06 2.39529e+06 2.39529e+06 -2.44581e-10 -7.11509e-10 -1.88995e-10
261 2 Al 26.982 3.6 7.2 25.2 2.01948e-28 -5.07076 0 2.39529e+06 2.39529e+06 2.39529e+06 2.16093e-10 1.26147e-09 -2.66816e-10
262 2 Al 26.982 7.2 7.2 25.2 2.01948e-28 -5.07076 0 2.39529e+06 2.39529e+06 2.39529e+06 1.71146e-10 -1.99721e-10 -1.77877e-10
263 2 Al 26.982 10.8 7.2 25.2 2.01948e-28 -5.07076 0 2.39529e+06 2.39529e+06 2.39529e+06 -1.33408e-10 1.57866e-09 -3.55755e-10
264 1 Ni 58.71 1.8 0 27 3.33294e-29 -4.45778 0 841171 506618 841171 3.11285e-10 1.11173e-11 2.33464e-10
265 1 Ni 58.71 0 1.8 27 3.33294e-29 -4.45778 0 506618 841171 841171 3.55755e-10 1.00056e-10 4.44693e-11
266 1 Ni 58.71 5.4 0 27 3.33294e-29 -4.45778 0 841171 506618 841171 -1.94553e-10 -0 2.22347e-10
267 1 Ni 58.71 3.6 1.8 27 0 -4.45778 0 506618 841171 841171 -1.55295e-10 3.89107e-11 -1.33408e-10
268 1 Ni 58.71 9 0 27 3.33294e-29 -4.45778 0 841171 506618 841171 -1.67872e-09 -8.89387e-11 2.11229e-10
269 1 Ni 58.71 7.2 1.8 27 0 -4.45778 0 506618 841171 841171 6.6704e-11 -4.44693e-11 -1.11173e-10
270 1 Ni 58.71 10.8 1.8 27 0 -4.45778 0 506618 841171 841171 -2.22347e-11 2.44581e-10 5.55867e-11
271 1 Ni 58.71 1.8 3.6 27 0 -4.45778 0 841171 506618 841171 -3.3352e-11 -5.55867e-11 -5.55867e-11
272 1 Ni 58.71 0 5.4 27 3.33294e-29 -4.45778 0 506618 841171 841171 -2.00112e-10 1.00056e-10 -1.11173e-11
273 1 Ni 58.71 5.4 3.6 27 0 -4.45778 0 841171 506618 841171 1.27849e-10 9.44973e-11 -4.44693e-11
274 1 Ni 58.71 3.6 5.4 27 0 -4.45778 0 506618 841171 841171 1.19859e-10 -1.00056e-10 1.55643e-10
275 1 Ni 58.71 9 3.6 27 0 -4.45778 0 841171 506618 841171 1.46436e-09 -0 -3.3352e-11
276 1 Ni 58.71 7.2 5.4 27 0 -4.45778 0 506618 841171 841171 -1.00056e-10 1.11173e-11 8.89387e-11
277 1 Ni 58.71 10.8 5.4 27 0 -4.45778 0 506618 841171 841171 8.89387e-11 7.22627e-11 -2.00112e-10