ITEM: TIMESTEP
10
ITEM: NUMBER OF ATOMS
4000
ITEM: BOX BOUNDS pp pp pp
1.8000000000000005e-01 3.5819999999999993e+01
1.8000000000000005e-01 3.5819999999999993e+01
1.8000000000000005e-01 3.5819999999999993e+01
ITEM: ATOMS id type element mass x y z c_csym c_potEnergy c_kinEnergy c_sigma[1] c_sigma[2] c_sigma[3] c_sigma[4] c_sigma[5] c_sigma[6]
1 2 Al 26.982 0.18 0.18 0.18 1.70986e-28 -5.12375 0 1.73393e+06 1.73393e+06 1.73393e+06 5.78101e-10 6.89275e-10 6.89275e-10
2 1 Ni 58.71 1.962 1.962 0.18 5.85729e-29 -4.46145 0 299595 299595 -149614 6.59049e-10 -8.338e-11 -8.338e-11
3 1 Ni 58.71 1.962 0.18 1.962 5.85729e-29 -4.46145 0 299595 -149614 299595 6.6704e-11 4.70055e-10 -4.169e-10
4 1 Ni 58.71 0.18 1.962 1.962 5.85729e-29 -4.46145 0 -149614 299595 299595 8.89387e-11 -3.77989e-10 6.68777e-10
5 2 Al 26.982 3.744 0.18 0.18 1.1399e-28 -5.12375 0 1.73393e+06 1.73393e+06 1.73393e+06 -8.33105e-10 -7.58411e-10 1.28961e-09
6 1 Ni 58.71 5.526 1.962 0.18 7.04058e-29 -4.46145 0 299595 299595 -149614 1.27849e-10 1.11729e-09 -3.55755e-10
7 1 Ni 58.71 5.526 0.18 1.962 7.04058e-29 -4.46145 0 299595 -149614 299595 8.00448e-10 8.89387e-11 -4.00224e-10
8 1 Ni 58.71 3.744 1.962 1.962 1.57772e-30 -4.46145 0 -149614 299595 299595 -7.40692e-10 -6.35772e-10 6.57312e-10
9 2 Al 26.982 7.308 0.18 0.18 1.26612e-28 -5.12375 0 1.73393e+06 1.73393e+06 1.73393e+06 -1.44699e-09 -1.44352e-09 7.55979e-10
10 1 Ni 58.71 9.09 1.962 0.18 1.08271e-28 -4.46145 0 299595 299595 -149614 5.66637e-10 7.33744e-10 -2.55699e-10
11 1 Ni 58.71 9.09 0.18 1.962 1.08271e-28 -4.46145 0 299595 -149614 299595 8.56035e-10 7.22627e-10 -2.66816e-10
12 1 Ni 58.71 7.308 1.962 1.962 1.41995e-29 -4.46145 0 -149614 299595 299595 1.02835e-09 9.50532e-10 3.1198e-10
13 2 Al 26.982 10.872 0.18 0.18 1.64477e-28 -5.12375 0 1.73393e+06 1.73393e+06 1.73393e+06 2.66816e-10 2.66816e-10 6.44805e-10
14 1 Ni 58.71 10.872 1.962 1.962 5.20648e-29 -4.46145 0 -149614 299595 299595 3.11285e-10 3.11285e-10 6.20139e-10
15 2 Al 26.982 0.18 3.744 0.18 1.1399e-28 -5.12375 0 1.73393e+06 1.73393e+06 1.73393e+06 -1.00056e-09 1.0895e-09 -7.33744e-10
16 1 Ni 58.71 1.962 5.526 0.18 7.04058e-29 -4.46145 0 299595 299595 -149614 -1.71276e-10 -3.72431e-10 1.10617e-09
17 1 Ni 58.71 1.962 3.744 1.962 1.57772e-30 -4.46145 0 299595 -149614 299595 -8.89387e-10 5.18346e-10 -6.24655e-10
18 1 Ni 58.71 0.18 5.526 1.962 7.04058e-29 -4.46145 0 -149614 299595 299595 8.22683e-10 -3.77989e-10 1.4383e-10
19 2 Al 26.982 3.744 3.744 0.18 5.69952e-29 -5.12375 0 1.73393e+06 1.73393e+06 1.73393e+06 1.38341e-09 -1.00542e-09 -1.069e-09
20 1 Ni 58.71 5.526 5.526 0.18 8.22387e-29 -4.46145 0 299595 299595 -149614 6.50364e-10 1.13953e-09 1.11173e-09
21 1 Ni 58.71 5.526 3.744 1.962 1.34106e-29 -4.46145 0 299595 -149614 299595 -9.72767e-10 -1.22291e-10 -6.22571e-10
22 1 Ni 58.71 3.744 5.526 1.962 1.34106e-29 -4.46145 0 -149614 299595 299595 -1.09506e-09 -6.30214e-10 -1.61201e-10
23 2 Al 26.982 7.308 3.744 0.18 6.9617e-29 -5.12375 0 1.73393e+06 1.73393e+06 1.73393e+06 8.24593e-10 -1.83123e-09 -7.4903e-10
24 1 Ni 58.71 9.09 5.526 0.18 1.20104e-28 -4.46145 0 299595 299595 -149614 3.3352e-11 5.89219e-10 9.95001e-10
25 1 Ni 58.71 9.09 3.744 1.962 5.1276e-29 -4.46145 0 299595 -149614 299595 -8.00448e-10 8.22683e-10 -7.17068e-10
26 1 Ni 58.71 7.308 5.526 1.962 2.60324e-29 -4.46145 0 -149614 299595 299595 -1.7343e-09 9.44973e-10 -9.44973e-11
27 2 Al 26.982 10.872 3.744 0.18 1.07482e-28 -5.12375 0 1.73393e+06 1.73393e+06 1.73393e+06 -7.78213e-10 2.66816e-10 -6.12148e-10
28 1 Ni 58.71 10.872 5.526 1.962 6.38977e-29 -4.46145 0 -149614 299595 299595 6.33688e-10 1.77877e-10 9.03283e-11
29 2 Al 26.982 0.18 7.308 0.18 1.26612e-28 -5.12375 0 1.73393e+06 1.73393e+06 1.73393e+06 -2.40134e-09 8.44917e-10 -1.53419e-09
30 1 Ni 58.71 1.962 7.308 1.962 1.41995e-29 -4.46145 0 299595 -149614 299595 8.22683e-10 2.88008e-10 9.67208e-10
31 2 Al 26.982 3.744 7.308 0.18 6.9617e-29 -5.12375 0 1.73393e+06 1.73393e+06 1.73393e+06 8.51866e-10 -7.63274e-10 -1.7343e-09
32 1 Ni 58.71 5.526 7.308 1.962 2.60324e-29 -4.46145 0 299595 -149614 299595 -1.59534e-09 -2.5014e-11 9.56091e-10
33 2 Al 26.982 7.308 7.308 0.18 8.22387e-29 -5.12375 0 1.73393e+06 1.73393e+06 1.73393e+06 1.4826e-09 -1.45046e-09 -1.55643e-09
34 1 Ni 58.71 9.09 7.308 1.962 6.38977e-29 -4.46145 0 299595 -149614 299595 -2.22347e-10 7.33744e-10 9.61649e-10
35 2 Al 26.982 10.872 7.308 0.18 1.20104e-28 -5.12375 0 1.73393e+06 1.73393e+06 1.73393e+06 -2.00112e-10 1.77877e-10 -1.03391e-09
36 2 Al 26.982 0.18 0.18 3.744 1.1399e-28 -5.12375 0 1.73393e+06 1.73393e+06 1.73393e+06 5.11397e-10 -8.89387e-10 -8.89387e-10
37 1 Ni 58.71 1.962 1.962 3.744 1.57772e-30 -4.46145 0 299595 299595 -149614 5.715e-10 -1.00056e-09 -1.00612e-09
38 1 Ni 58.71 1.962 0.18 5.526 7.04058e-29 -4.46145 0 299595 -149614 299595 -1.33408e-10 -2.60215e-10 1.27849e-09
39 1 Ni 58.71 0.18 1.962 5.526 7.04058e-29 -4.46145 0 -149614 299595 299595 -1.22291e-10 1.24514e-09 -2.33464e-10
40 2 Al 26.982 3.744 0.18 3.744 5.69952e-29 -5.12375 0 1.73393e+06 1.73393e+06 1.73393e+06 -8.51171e-10 1.6134e-09 -1.06726e-09
41 1 Ni 58.71 5.526 1.962 3.744 1.34106e-29 -4.46145 0 299595 299595 -149614 -1.28197e-10 -9.61649e-10 -9.78325e-10
42 1 Ni 58.71 5.526 0.18 5.526 8.22387e-29 -4.46145 0 299595 -149614 299595 8.44917e-10 7.55979e-10 1.24514e-09
43 1 Ni 58.71 3.744 1.962 5.526 1.34106e-29 -4.46145 0 -149614 299595 299595 -8.12955e-10 -1.16593e-09 -4.93679e-10
44 2 Al 26.982 7.308 0.18 3.744 6.9617e-29 -5.12375 0 1.73393e+06 1.73393e+06 1.73393e+06 -1.37751e-09 7.25406e-10 -7.55979e-10
45 1 Ni 58.71 9.09 1.962 3.744 5.1276e-29 -4.46145 0 299595 299595 -149614 8.4596e-10 -8.22683e-10 -1.03391e-09
46 1 Ni 58.71 9.09 0.18 5.526 1.20104e-28 -4.46145 0 299595 -149614 299595 7.11509e-10 4.44693e-11 9.72767e-10
47 1 Ni 58.71 7.308 1.962 5.526 2.60324e-29 -4.46145 0 -149614 299595 299595 9.44973e-10 -1.68983e-09 -3.60271e-10
48 2 Al 26.982 10.872 0.18 3.744 1.07482e-28 -5.12375 0 1.73393e+06 1.73393e+06 1.73393e+06 2.11229e-10 -6.33688e-10 -5.78101e-10
49 1 Ni 58.71 10.872 1.962 5.526 6.38977e-29 -4.46145 0 -149614 299595 299595 2.22347e-10 6.6704e-10 -1.77877e-10
50 2 Al 26.982 0.18 3.744 3.744 5.69952e-29 -5.12375 0 1.73393e+06 1.73393e+06 1.73393e+06 -1.00056e-09 -9.56091e-10 1.51196e-09
51 1 Ni 58.71 1.962 5.526 3.744 1.34106e-29 -4.46145 0 299595 299595 -149614 -3.05032e-10 -9.78325e-10 -8.7688e-10
52 1 Ni 58.71 1.962 3.744 5.526 1.34106e-29 -4.46145 0 299595 -149614 299595 -9.56091e-10 -4.33576e-10 -1.03947e-09
53 1 Ni 58.71 0.18 5.526 5.526 8.22387e-29 -4.46145 0 -149614 299595 299595 9.33856e-10 1.1562e-09 6.6704e-10
54 2 Al 26.982 3.744 3.744 3.744 0 -5.12375 0 1.73393e+06 1.73393e+06 1.73393e+06 1.64919e-09 1.72944e-09 1.67941e-09
55 1 Ni 58.71 5.526 5.526 3.744 2.52435e-29 -4.46145 0 299595 299595 -149614 8.22683e-10 -8.56035e-10 -7.55979e-10
56 1 Ni 58.71 5.526 3.744 5.526 2.52435e-29 -4.46145 0 299595 -149614 299595 -8.22683e-10 1.06726e-09 -1.04503e-09
57 1 Ni 58.71 3.744 5.526 5.526 2.52435e-29 -4.46145 0 -149614 299595 299595 -7.28185e-10 -1.08811e-09 1.11173e-09
58 2 Al 26.982 7.308 3.744 3.744 1.26218e-29 -5.12375 0 1.73393e+06 1.73393e+06 1.73393e+06 1.02575e-09 1.17357e-09 1.36083e-09
59 1 Ni 58.71 9.09 5.526 3.744 6.31089e-29 -4.46145 0 299595 299595 -149614 1.6676e-10 -8.00448e-10 -7.37913e-10
60 1 Ni 58.71 9.09 3.744 5.526 6.31089e-29 -4.46145 0 299595 -149614 299595 -7.94194e-10 2.22347e-10 -7.83772e-10
61 1 Ni 58.71 7.308 5.526 5.526 3.78653e-29 -4.46145 0 -149614 299595 299595 -1.69539e-09 -1.64537e-09 8.89387e-10
62 2 Al 26.982 10.872 3.744 3.744 5.04871e-29 -5.12375 0 1.73393e+06 1.73393e+06 1.73393e+06 -8.56035e-10 -7.00392e-10 1.42302e-09
63 1 Ni 58.71 10.872 5.526 5.526 7.57306e-29 -4.46145 0 -149614 299595 299595 7.89331e-10 7.78213e-10 4.44693e-10
64 2 Al 26.982 0.18 7.308 3.744 6.9617e-29 -5.12375 0 1.73393e+06 1.73393e+06 1.73393e+06 -2.20123e-09 -7.33744e-10 6.89275e-10
65 1 Ni 58.71 1.962 7.308 5.526 2.60324e-29 -4.46145 0 299595 -149614 299595 8.11565e-10 -2.89051e-10 -1.68983e-09
66 2 Al 26.982 3.744 7.308 3.744 1.26218e-29 -5.12375 0 1.73393e+06 1.73393e+06 1.73393e+06 9.80062e-10 1.35631e-09 1.10687e-09
67 1 Ni 58.71 5.526 7.308 5.526 3.78653e-29 -4.46145 0 299595 -149614 299595 -1.65648e-09 7.22627e-10 -1.77877e-09
68 2 Al 26.982 7.308 7.308 3.744 2.52435e-29 -5.12375 0 1.73393e+06 1.73393e+06 1.73393e+06 1.45133e-09 7.72655e-10 7.69528e-10
69 1 Ni 58.71 9.09 7.308 5.526 7.57306e-29 -4.46145 0 299595 -149614 299595 -1.11173e-10 4.44693e-11 -1.7621e-09
70 2 Al 26.982 10.872 7.308 3.744 6.31089e-29 -5.12375 0 1.73393e+06 1.73393e+06 1.73393e+06 -2.33464e-10 -6.89275e-10 3.77989e-10
71 2 Al 26.982 0.18 0.18 7.308 1.26612e-28 -5.12375 0 1.73393e+06 1.73393e+06 1.73393e+06 8.00448e-10 -2.49028e-09 -2.49028e-09
72 1 Ni 58.71 1.962 1.962 7.308 1.41995e-29 -4.46145 0 299595 299595 -149614 5.04102e-10 7.55979e-10 8.56035e-10
73 2 Al 26.982 3.744 0.18 7.308 6.9617e-29 -5.12375 0 1.73393e+06 1.73393e+06 1.73393e+06 -7.45904e-10 7.56326e-10 -2.84604e-09
74 1 Ni 58.71 5.526 1.962 7.308 2.60324e-29 -4.46145 0 299595 299595 -149614 -4.89857e-11 -1.7621e-09 8.44917e-10
75 2 Al 26.982 7.308 0.18 7.308 8.22387e-29 -5.12375 0 1.73393e+06 1.73393e+06 1.73393e+06 -1.53141e-09 1.36708e-09 -2.31241e-09
76 1 Ni 58.71 9.09 1.962 7.308 6.38977e-29 -4.46145 0 299595 299595 -149614 7.23321e-10 -1.55643e-10 7.5042e-10
77 2 Al 26.982 10.872 0.18 7.308 1.20104e-28 -5.12375 0 1.73393e+06 1.73393e+06 1.73393e+06 2.77933e-10 -2.22347e-10 -2.2457e-09
78 2 Al 26.982 0.18 3.744 7.308 6.9617e-29 -5.12375 0 1.73393e+06 1.73393e+06 1.73393e+06 -1.05615e-09 -2.42358e-09 6.89275e-10
79 1 Ni 58.71 1.962 5.526 7.308 2.60324e-29 -4.46145 0 299595 299595 -149614 -2.25821e-10 7.33744e-10 -1.7343e-09
80 2 Al 26.982 3.744 3.744 7.308 1.26218e-29 -5.12375 0 1.73393e+06 1.73393e+06 1.73393e+06 1.28579e-09 1.05684e-09 1.00473e-09
81 1 Ni 58.71 5.526 5.526 7.308 3.78653e-29 -4.46145 0 299595 299595 -149614 6.6704e-10 -1.76766e-09 -1.78572e-09
82 2 Al 26.982 7.308 3.744 7.308 2.52435e-29 -5.12375 0 1.73393e+06 1.73393e+06 1.73393e+06 8.84696e-10 1.32348e-09 9.98823e-10
83 1 Ni 58.71 9.09 5.526 7.308 7.57306e-29 -4.46145 0 299595 299595 -149614 5.55867e-11 -1.33408e-10 -1.75098e-09
84 2 Al 26.982 10.872 3.744 7.308 6.31089e-29 -5.12375 0 1.73393e+06 1.73393e+06 1.73393e+06 -6.6704e-10 -2.00112e-10 4.33576e-10
85 2 Al 26.982 0.18 7.308 7.308 8.22387e-29 -5.12375 0 1.73393e+06 1.73393e+06 1.73393e+06 -2.31241e-09 -2.22347e-09 1.38967e-09
86 2 Al 26.982 3.744 7.308 7.308 2.52435e-29 -5.12375 0 1.73393e+06 1.73393e+06 1.73393e+06 9.01894e-10 9.64776e-10 1.42302e-09
87 2 Al 26.982 7.308 7.308 7.308 3.78653e-29 -5.12375 0 1.73393e+06 1.73393e+06 1.73393e+06 1.49632e-09 1.4119e-09 1.33408e-09
88 2 Al 26.982 10.872 7.308 7.308 7.57306e-29 -5.12375 0 1.73393e+06 1.73393e+06 1.73393e+06 1.00056e-10 1.11173e-10 1.47861e-09
89 1 Ni 58.71 1.962 0.18 9.09 1.08271e-28 -4.46145 0 299595 -149614 299595 -2.66816e-10 7.22627e-10 5.33632e-10
90 1 Ni 58.71 0.18 1.962 9.09 1.08271e-28 -4.46145 0 -149614 299595 299595 -3.00168e-10 5.44749e-10 7.78213e-10
91 1 Ni 58.71 5.526 0.18 9.09 1.20104e-28 -4.46145 0 299595 -149614 299595 1.03947e-09 2.22347e-11 6.00336e-10
92 1 Ni 58.71 3.744 1.962 9.09 5.1276e-29 -4.46145 0 -149614 299595 299595 -7.63622e-10 -7.22627e-10 6.22571e-10
93 1 Ni 58.71 9.09 0.18 9.09 1.57969e-28 -4.46145 0 299595 -149614 299595 7.33744e-10 -1.00056e-10 7.00392e-10
94 1 Ni 58.71 7.308 1.962 9.09 6.38977e-29 -4.46145 0 -149614 299595 299595 9.00504e-10 -1.33408e-10 6.22571e-10
95 1 Ni 58.71 10.872 1.962 9.09 1.01763e-28 -4.46145 0 -149614 299595 299595 8.89387e-11 7.78213e-10 7.78213e-10
96 1 Ni 58.71 1.962 3.744 9.09 5.1276e-29 -4.46145 0 299595 -149614 299595 -9.22739e-10 5.78101e-10 -6.83716e-10
97 1 Ni 58.71 0.18 5.526 9.09 1.20104e-28 -4.46145 0 -149614 299595 299595 9.89443e-10 6.39247e-10 -2.22347e-11
98 1 Ni 58.71 5.526 3.744 9.09 6.31089e-29 -4.46145 0 299595 -149614 299595 -8.78269e-10 1.11173e-11 -9.00504e-10
99 1 Ni 58.71 3.744 5.526 9.09 6.31089e-29 -4.46145 0 -149614 299595 299595 -9.6026e-10 -8.44917e-10 4.44693e-11
100 1 Ni 58.71 9.09 3.744 9.09 1.00974e-28 -4.46145 0 299595 -149614 299595 -8.38664e-10 2.22347e-11 -8.22683e-10
101 1 Ni 58.71 7.308 5.526 9.09 7.57306e-29 -4.46145 0 -149614 299595 299595 -1.68983e-09 -1.55643e-10 -2.22347e-11
102 1 Ni 58.71 10.872 5.526 9.09 1.13596e-28 -4.46145 0 -149614 299595 299595 8.22683e-10 7.00392e-10 -4.44693e-11
103 1 Ni 58.71 1.962 7.308 9.09 6.38977e-29 -4.46145 0 299595 -149614 299595 7.67096e-10 5.66984e-10 -6.11453e-11
104 1 Ni 58.71 5.526 7.308 9.09 7.57306e-29 -4.46145 0 299595 -149614 299595 -1.63425e-09 4.69012e-11 -8.89387e-11
105 1 Ni 58.71 9.09 7.308 9.09 1.13596e-28 -4.46145 0 299595 -149614 299595 -2.00112e-10 2.22347e-11 -1.27849e-10
106 2 Al 26.982 0.18 0.18 10.872 1.64477e-28 -5.12375 0 1.73393e+06 1.73393e+06 1.73393e+06 4.44693e-10 -8.89387e-11 -1.00056e-10
107 1 Ni 58.71 1.962 1.962 10.872 5.20648e-29 -4.46145 0 299595 299595 -149614 5.23904e-10 2.62647e-10 2.689e-10
108 1 Ni 58.71 1.962 0.18 12.654 1.08271e-28 -4.46145 0 299595 -149614 299595 -1.33408e-10 -2.89051e-10 -1.78989e-09
109 1 Ni 58.71 0.18 1.962 12.654 1.08271e-28 -4.46145 0 -149614 299595 299595 -7.78213e-11 -1.80101e-09 -3.77989e-10
110 2 Al 26.982 3.744 0.18 10.872 1.07482e-28 -5.12375 0 1.73393e+06 1.73393e+06 1.73393e+06 -6.66345e-10 -8.74448e-10 3.55755e-10
111 1 Ni 58.71 5.526 1.962 10.872 6.38977e-29 -4.46145 0 299595 299595 -149614 2.22347e-11 5.78101e-10 2.91135e-10
112 1 Ni 58.71 5.526 0.18 12.654 1.20104e-28 -4.46145 0 299595 -149614 299595 8.00448e-10 -7.54589e-10 -1.84548e-09
113 1 Ni 58.71 3.744 1.962 12.654 5.1276e-29 -4.46145 0 -149614 299595 299595 -7.79603e-10 7.72655e-10 -3.3352e-10
114 2 Al 26.982 7.308 0.18 10.872 1.20104e-28 -5.12375 0 1.73393e+06 1.73393e+06 1.73393e+06 -1.1562e-09 3.73473e-11 -8.89387e-11
115 1 Ni 58.71 9.09 1.962 10.872 1.01763e-28 -4.46145 0 299595 299595 -149614 8.16777e-10 7.78213e-10 2.0845e-12
116 1 Ni 58.71 9.09 0.18 12.654 1.57969e-28 -4.46145 0 299595 -149614 299595 6.55923e-10 -7.11509e-10 -1.78433e-09
117 1 Ni 58.71 7.308 1.962 12.654 6.38977e-29 -4.46145 0 -149614 299595 299595 8.65762e-10 5.55867e-11 -2.89051e-10
118 2 Al 26.982 10.872 0.18 10.872 1.57969e-28 -5.12375 0 1.73393e+06 1.73393e+06 1.73393e+06 2.22347e-10 -1.04503e-09 6.6704e-11
119 1 Ni 58.71 10.872 1.962 12.654 1.01763e-28 -4.46145 0 -149614 299595 299595 1.11173e-10 9.89443e-10 -2.00112e-10
120 2 Al 26.982 0.18 3.744 10.872 1.07482e-28 -5.12375 0 1.73393e+06 1.73393e+06 1.73393e+06 -7.55979e-10 4.00224e-10 -9.78325e-10
121 1 Ni 58.71 1.962 5.526 10.872 6.38977e-29 -4.46145 0 299595 299595 -149614 -1.05615e-10 1.95943e-10 5.55519e-10
122 1 Ni 58.71 1.962 3.744 12.654 5.1276e-29 -4.46145 0 299595 -149614 299595 -1.01168e-09 -3.66872e-10 7.94889e-10
123 1 Ni 58.71 0.18 5.526 12.654 1.20104e-28 -4.46145 0 -149614 299595 299595 8.78269e-10 -1.6676e-09 -7.11509e-10
124 2 Al 26.982 3.744 3.744 10.872 5.04871e-29 -5.12375 0 1.73393e+06 1.73393e+06 1.73393e+06 1.32123e-09 -8.18687e-10 -8.20772e-10
125 1 Ni 58.71 5.526 5.526 10.872 7.57306e-29 -4.46145 0 299595 299595 -149614 5.66984e-10 6.11453e-10 5.93388e-10
126 1 Ni 58.71 5.526 3.744 12.654 6.31089e-29 -4.46145 0 299595 -149614 299595 -7.00392e-10 -5.89566e-10 9.06063e-10
127 1 Ni 58.71 3.744 5.526 12.654 6.31089e-29 -4.46145 0 -149614 299595 299595 -7.78213e-10 8.11565e-10 -5.0028e-10
128 2 Al 26.982 7.308 3.744 10.872 6.31089e-29 -5.12375 0 1.73393e+06 1.73393e+06 1.73393e+06 3.95708e-10 -1.6537e-10 -6.44458e-10
129 1 Ni 58.71 9.09 5.526 10.872 1.13596e-28 -4.46145 0 299595 299595 -149614 5.55867e-11 7.89331e-10 9.1718e-10
130 1 Ni 58.71 9.09 3.744 12.654 1.00974e-28 -4.46145 0 299595 -149614 299595 -6.44805e-10 -8.67152e-10 8.44917e-10
131 1 Ni 58.71 7.308 5.526 12.654 7.57306e-29 -4.46145 0 -149614 299595 299595 -1.57866e-09 5.55867e-11 -4.11341e-10
132 2 Al 26.982 10.872 3.744 10.872 1.00974e-28 -5.12375 0 1.73393e+06 1.73393e+06 1.73393e+06 -4.00224e-10 -6.89275e-10 -7.89331e-10
133 1 Ni 58.71 10.872 5.526 12.654 1.13596e-28 -4.46145 0 -149614 299595 299595 8.11565e-10 1.00056e-09 -5.78101e-10
134 2 Al 26.982 0.18 7.308 10.872 1.20104e-28 -5.12375 0 1.73393e+06 1.73393e+06 1.73393e+06 -2.13453e-09 -8.89387e-11 -4.44693e-11
135 1 Ni 58.71 1.962 7.308 12.654 6.38977e-29 -4.46145 0 299595 -149614 299595 7.11509e-10 -1.6676e-10 -1.55643e-10
136 2 Al 26.982 3.744 7.308 10.872 6.31089e-29 -5.12375 0 1.73393e+06 1.73393e+06 1.73393e+06 4.93332e-10 -6.75552e-10 -2.22347e-10
137 1 Ni 58.71 5.526 7.308 12.654 7.57306e-29 -4.46145 0 299595 -149614 299595 -1.61201e-09 -5.66637e-10 -5.55867e-12
138 2 Al 26.982 7.308 7.308 10.872 7.57306e-29 -5.12375 0 1.73393e+06 1.73393e+06 1.73393e+06 1.47513e-09 2.57088e-10 1.77877e-10
139 1 Ni 58.71 9.09 7.308 12.654 1.13596e-28 -4.46145 0 299595 -149614 299595 -2.11229e-10 -7.78213e-10 -7.78213e-11
140 2 Al 26.982 10.872 7.308 10.872 1.13596e-28 -5.12375 0 1.73393e+06 1.73393e+06 1.73393e+06 2.22347e-10 -7.11509e-10 2.00112e-10
141 2 Al 26.982 0.18 0.18 14.436 1.1399e-28 -5.12375 0 1.73393e+06 1.73393e+06 1.73393e+06 4.00224e-10 -2.22347e-10 -2.22347e-10
142 1 Ni 58.71 1.962 1.962 14.436 1.57772e-30 -4.46145 0 299595 299595 -149614 3.46027e-10 -2.14356e-10 -3.36647e-10
143 1 Ni 58.71 1.962 0.18 16.218 2.59732e-28 -4.46145 0 299595 -149614 299595 -7.78213e-11 -2.89051e-10 -1.48416e-09
144 1 Ni 58.71 0.18 1.962 16.218 2.59732e-28 -4.46145 0 -149614 299595 299595 -1.33408e-10 -1.42302e-09 -1.77877e-10
145 2 Al 26.982 3.744 0.18 14.436 5.69952e-29 -5.12375 0 1.73393e+06 1.73393e+06 1.73393e+06 -7.38955e-10 1.57727e-10 -5.33632e-10
146 1 Ni 58.71 5.526 1.962 14.436 1.34106e-29 -4.46145 0 299595 299595 -149614 1.88995e-10 7.78213e-11 -2.72375e-10
147 1 Ni 58.71 5.526 0.18 16.218 2.71565e-28 -4.46145 0 299595 -149614 299595 9.22739e-10 -3.3352e-11 -1.48972e-09
148 1 Ni 58.71 3.744 1.962 16.218 2.02737e-28 -4.46145 0 -149614 299595 299595 -8.01838e-10 2.77933e-11 4.44693e-11
149 2 Al 26.982 7.308 0.18 14.436 6.9617e-29 -5.12375 0 1.73393e+06 1.73393e+06 1.73393e+06 -9.36288e-10 2.04628e-10 -4.00224e-10
150 1 Ni 58.71 9.09 1.962 14.436 5.1276e-29 -4.46145 0 299595 299595 -149614 7.77866e-10 -0 -2.47708e-10
151 1 Ni 58.71 9.09 0.18 16.218 3.09431e-28 -4.46145 0 299595 -149614 299595 5.89219e-10 2.22347e-11 -1.62869e-09
152 1 Ni 58.71 7.308 1.962 16.218 2.15359e-28 -4.46145 0 -149614 299595 299595 9.32466e-10 1.44525e-10 -0
153 2 Al 26.982 10.872 0.18 14.436 1.07482e-28 -5.12375 0 1.73393e+06 1.73393e+06 1.73393e+06 1.55643e-10 6.6704e-11 -2.55699e-10
154 1 Ni 58.71 10.872 1.962 16.218 2.53224e-28 -4.46145 0 -149614 299595 299595 4.44693e-11 -1.00056e-09 -2.77933e-10
155 2 Al 26.982 0.18 3.744 14.436 5.69952e-29 -5.12375 0 1.73393e+06 1.73393e+06 1.73393e+06 -7.67096e-10 -5.78101e-10 1.77877e-10
156 1 Ni 58.71 1.962 5.526 14.436 1.34106e-29 -4.46145 0 299595 299595 -149614 -8.89387e-11 -1.64328e-10 6.6704e-11
157 1 Ni 58.71 1.962 3.744 16.218 2.02737e-28 -4.46145 0 299595 -149614 299595 -9.78325e-10 7.78213e-11 -9.44973e-11
158 1 Ni 58.71 0.18 5.526 16.218 2.71565e-28 -4.46145 0 -149614 299595 299595 8.11565e-10 -1.42302e-09 1.44525e-10
159 2 Al 26.982 3.744 3.744 14.436 0 -5.12375 0 1.73393e+06 1.73393e+06 1.73393e+06 1.27328e-09 5.78449e-11 1.21943e-10
160 1 Ni 58.71 5.526 5.526 14.436 2.52435e-29 -4.46145 0 299595 299595 -149614 5.55867e-10 -1.00056e-10 4.44693e-11
161 1 Ni 58.71 5.526 3.744 16.218 2.1457e-28 -4.46145 0 299595 -149614 299595 -8.338e-10 -2.00112e-10 -3.89107e-11
162 1 Ni 58.71 3.744 5.526 16.218 2.1457e-28 -4.46145 0 -149614 299595 299595 -7.22627e-10 7.22627e-11 -2.36938e-10
163 2 Al 26.982 7.308 3.744 14.436 1.26218e-29 -5.12375 0 1.73393e+06 1.73393e+06 1.73393e+06 4.51121e-10 2.98083e-10 9.44973e-11
164 1 Ni 58.71 9.09 5.526 14.436 6.31089e-29 -4.46145 0 299595 299595 -149614 -1.77877e-10 1.55643e-10 -5.0028e-11
165 1 Ni 58.71 9.09 3.744 16.218 2.52435e-28 -4.46145 0 299595 -149614 299595 -5.89219e-10 -1.44525e-10 8.338e-11
166 1 Ni 58.71 7.308 5.526 16.218 2.27192e-28 -4.46145 0 -149614 299595 299595 -1.58978e-09 -3.3352e-11 -1.47999e-10
167 2 Al 26.982 10.872 3.744 14.436 5.04871e-29 -5.12375 0 1.73393e+06 1.73393e+06 1.73393e+06 -5.78101e-10 8.89387e-11 1.8691e-10
168 1 Ni 58.71 10.872 5.526 16.218 2.65057e-28 -4.46145 0 -149614 299595 299595 8.11565e-10 -9.44973e-10 8.89387e-11
169 2 Al 26.982 0.18 7.308 14.436 6.9617e-29 -5.12375 0 1.73393e+06 1.73393e+06 1.73393e+06 -1.93442e-09 -3.55755e-10 2.11229e-10
170 1 Ni 58.71 1.962 7.308 16.218 2.15359e-28 -4.46145 0 299595 -149614 299595 7.11509e-10 -1.11173e-10 8.338e-11
171 2 Al 26.982 3.744 7.308 14.436 1.26218e-29 -5.12375 0 1.73393e+06 1.73393e+06 1.73393e+06 5.27378e-10 -2.03239e-11 3.11285e-10
172 1 Ni 58.71 5.526 7.308 16.218 2.27192e-28 -4.46145 0 299595 -149614 299595 -1.65648e-09 -1.11173e-10 4.44693e-11
173 2 Al 26.982 7.308 7.308 14.436 2.52435e-29 -5.12375 0 1.73393e+06 1.73393e+06 1.73393e+06 1.33425e-09 -2.46666e-11 4.44693e-11
174 1 Ni 58.71 9.09 7.308 16.218 2.65057e-28 -4.46145 0 299595 -149614 299595 -2.44581e-10 -1.00056e-10 2.77933e-11
175 2 Al 26.982 10.872 7.308 14.436 6.31089e-29 -5.12375 0 1.73393e+06 1.73393e+06 1.73393e+06 2.66816e-10 4.44693e-11 -4.44693e-11
176 2 Al 26.982 0.18 0.18 18 9.21784e-28 -5.12375 0 1.73393e+06 1.73393e+06 1.73393e+06 5.33632e-10 6.89275e-10 7.11509e-10
177 1 Ni 58.71 1.962 1.962 18 8.09371e-28 -4.46145 0 299595 299595 -149614 6.4689e-10 -1.62869e-09 -1.53975e-09
178 1 Ni 58.71 1.962 0.18 19.782 5.77841e-29 -4.46145 0 299595 -149614 299595 -3.3352e-10 -2.35201e-10 1.0895e-09
179 1 Ni 58.71 0.18 1.962 19.782 5.77841e-29 -4.46145 0 -149614 299595 299595 -2.44581e-10 1.1562e-09 -2.63342e-10
180 2 Al 26.982 3.744 0.18 18 8.64789e-28 -5.12375 0 1.73393e+06 1.73393e+06 1.73393e+06 -5.89219e-10 6.55402e-10 3.55755e-10
181 1 Ni 58.71 5.526 1.962 18 8.21204e-28 -4.46145 0 299595 299595 -149614 1.27849e-10 6.33688e-10 -1.68983e-09
182 1 Ni 58.71 5.526 0.18 19.782 6.9617e-29 -4.46145 0 299595 -149614 299595 8.11565e-10 8.94945e-10 1.13397e-09
183 1 Ni 58.71 3.744 1.962 19.782 7.88861e-31 -4.46145 0 -149614 299595 299595 -7.24016e-10 -1.17462e-09 -3.19623e-10
184 2 Al 26.982 7.308 0.18 18 8.77411e-28 -5.12375 0 1.73393e+06 1.73393e+06 1.73393e+06 -1.34277e-09 2.53614e-11 3.11285e-10
185 1 Ni 58.71 9.09 1.962 18 8.5907e-28 -4.46145 0 299595 299595 -149614 6.11106e-10 -6.44805e-10 -1.50084e-09
186 1 Ni 58.71 9.09 0.18 19.782 1.07482e-28 -4.46145 0 299595 -149614 299595 8.338e-10 6.22571e-10 1.11173e-09
187 1 Ni 58.71 7.308 1.962 19.782 1.34106e-29 -4.46145 0 -149614 299595 299595 1.05059e-09 -1.86215e-09 -2.64037e-10
188 2 Al 26.982 10.872 0.18 18 9.15276e-28 -5.12375 0 1.73393e+06 1.73393e+06 1.73393e+06 2.00112e-10 1.55643e-10 4.22459e-10
189 1 Ni 58.71 10.872 1.962 19.782 5.1276e-29 -4.46145 0 -149614 299595 299595 2.22347e-11 6.11453e-11 4.72487e-11
190 2 Al 26.982 0.18 3.744 18 8.64789e-28 -5.12375 0 1.73393e+06 1.73393e+06 1.73393e+06 -5.78101e-10 4.22459e-10 6.44805e-10
191 1 Ni 58.71 1.962 5.526 18 8.21204e-28 -4.46145 0 299595 299595 -149614 -5.94082e-11 -1.59534e-09 5.94777e-10
192 1 Ni 58.71 1.962 3.744 19.782 7.88861e-31 -4.46145 0 299595 -149614 299595 -8.67152e-10 -2.29642e-10 -1.32991e-09
193 1 Ni 58.71 0.18 5.526 19.782 6.9617e-29 -4.46145 0 -149614 299595 299595 9.33856e-10 1.13397e-09 8.61941e-10
194 2 Al 26.982 3.744 3.744 18 8.07794e-28 -5.12375 0 1.73393e+06 1.73393e+06 1.73393e+06 1.18782e-09 6.44805e-10 6.74336e-10
195 1 Ni 58.71 5.526 5.526 18 8.33037e-28 -4.46145 0 299595 299595 -149614 5.94777e-10 6.33688e-10 5.78101e-10
196 1 Ni 58.71 5.526 3.744 19.782 1.26218e-29 -4.46145 0 299595 -149614 299595 -6.28129e-10 8.44917e-10 -1.23402e-09
197 1 Ni 58.71 3.744 5.526 19.782 1.26218e-29 -4.46145 0 -149614 299595 299595 -6.89275e-10 -1.08012e-09 7.1012e-10
198 2 Al 26.982 7.308 3.744 18 8.20415e-28 -5.12375 0 1.73393e+06 1.73393e+06 1.73393e+06 8.91645e-10 -2.38328e-10 6.39247e-10
199 1 Ni 58.71 9.09 5.526 18 8.70902e-28 -4.46145 0 299595 299595 -149614 1.33408e-10 -5.33632e-10 5.8366e-10
200 1 Ni 58.71 9.09 3.744 19.782 5.04871e-29 -4.46145 0 299595 -149614 299595 -7.55979e-10 8.00448e-10 -9.1718e-10
201 1 Ni 58.71 7.308 5.526 19.782 2.52435e-29 -4.46145 0 -149614 299595 299595 -1.59534e-09 -1.75654e-09 6.98307e-10
202 2 Al 26.982 10.872 3.744 18 8.58281e-28 -5.12375 0 1.73393e+06 1.73393e+06 1.73393e+06 -8.67152e-10 8.89387e-11 6.20312e-10
203 1 Ni 58.71 10.872 5.526 19.782 6.31089e-29 -4.46145 0 -149614 299595 299595 9.11621e-10 8.89387e-11 4.78045e-10
204 2 Al 26.982 0.18 7.308 18 8.77411e-28 -5.12375 0 1.73393e+06 1.73393e+06 1.73393e+06 -2.20123e-09 3.11285e-10 1.77877e-10
205 1 Ni 58.71 1.962 7.308 19.782 1.34106e-29 -4.46145 0 299595 -149614 299595 8.00448e-10 -2.85924e-10 -1.77321e-09
206 2 Al 26.982 3.744 7.308 18 8.20415e-28 -5.12375 0 1.73393e+06 1.73393e+06 1.73393e+06 8.73058e-10 6.75725e-10 -1.33408e-10
207 1 Ni 58.71 5.526 7.308 19.782 2.52435e-29 -4.46145 0 299595 -149614 299595 -1.62869e-09 8.51866e-10 -1.86771e-09
208 2 Al 26.982 7.308 7.308 18 8.33037e-28 -5.12375 0 1.73393e+06 1.73393e+06 1.73393e+06 1.42667e-09 -1.1291e-10 4.44693e-11
209 1 Ni 58.71 9.09 7.308 19.782 6.31089e-29 -4.46145 0 299595 -149614 299595 -1.33408e-10 7.67096e-10 -1.85104e-09
210 2 Al 26.982 10.872 7.308 18 8.70902e-28 -5.12375 0 1.73393e+06 1.73393e+06 1.73393e+06 -4.44693e-11 -4.44693e-11 1.11173e-10
211 2 Al 26.982 0.18 0.18 21.564 1.1399e-28 -5.12375 0 1.73393e+06 1.73393e+06 1.73393e+06 8.22683e-10 -7.55979e-10 -7.11509e-10
212 1 Ni 58.71 1.962 1.962 21.564 1.57772e-30 -4.46145 0 299595 299595 -149614 4.4921e-10 -4.44693e-11 -1.22291e-10
213 1 Ni 58.71 1.962 0.18 23.346 5.77841e-29 -4.46145 0 299595 -149614 299595 -8.89387e-11 2.36243e-11 -1.00612e-09
214 1 Ni 58.71 0.18 1.962 23.346 5.77841e-29 -4.46145 0 -149614 299595 299595 -6.6704e-11 -1.02279e-09 6.6704e-11
215 2 Al 26.982 3.744 0.18 21.564 5.69952e-29 -5.12375 0 1.73393e+06 1.73393e+06 1.73393e+06 -9.54006e-10 -5.17651e-11 -7.55979e-10
216 1 Ni 58.71 5.526 1.962 21.564 1.34106e-29 -4.46145 0 299595 299595 -149614 9.24128e-11 1.05615e-10 -6.6704e-11
217 1 Ni 58.71 5.526 0.18 23.346 6.9617e-29 -4.46145 0 299595 -149614 299595 8.67152e-10 -1.16732e-10 -8.89387e-10
218 1 Ni 58.71 3.744 1.962 23.346 7.88861e-31 -4.46145 0 -149614 299595 299595 -8.29631e-10 4.3566e-10 2.57088e-10
219 2 Al 26.982 7.308 0.18 21.564 6.9617e-29 -5.12375 0 1.73393e+06 1.73393e+06 1.73393e+06 -1.25765e-09 -1.14995e-10 -7.11509e-10
220 1 Ni 58.71 9.09 1.962 21.564 5.1276e-29 -4.46145 0 299595 299595 -149614 6.45153e-10 -4.44693e-11 -3.22403e-10
221 1 Ni 58.71 9.09 0.18 23.346 1.07482e-28 -4.46145 0 299595 -149614 299595 6.55923e-10 4.44693e-11 -9.39415e-10
222 1 Ni 58.71 7.308 1.962 23.346 1.34106e-29 -4.46145 0 -149614 299595 299595 9.33856e-10 -2.22347e-11 8.99809e-11
223 2 Al 26.982 10.872 0.18 21.564 1.07482e-28 -5.12375 0 1.73393e+06 1.73393e+06 1.73393e+06 1.88995e-10 -2.22347e-11 -6.22571e-10
224 1 Ni 58.71 10.872 1.962 23.346 5.1276e-29 -4.46145 0 -149614 299595 299595 6.6704e-11 5.33632e-10 -1.55643e-10
225 2 Al 26.982 0.18 3.744 21.564 5.69952e-29 -5.12375 0 1.73393e+06 1.73393e+06 1.73393e+06 -1.17844e-09 -6.00336e-10 -1.11173e-10
226 1 Ni 58.71 1.962 5.526 21.564 1.34106e-29 -4.46145 0 299595 299595 -149614 -2.51182e-10 -0 2.41802e-10
227 1 Ni 58.71 1.962 3.744 23.346 7.88861e-31 -4.46145 0 299595 -149614 299595 -9.67208e-10 1.22291e-10 5.0028e-10
228 1 Ni 58.71 0.18 5.526 23.346 6.9617e-29 -4.46145 0 -149614 299595 299595 8.338e-10 -1.06726e-09 -2.89051e-10
229 2 Al 26.982 3.744 3.744 21.564 0 -5.12375 0 1.73393e+06 1.73393e+06 1.73393e+06 1.33582e-09 6.94833e-11 -8.02532e-11
230 1 Ni 58.71 5.526 5.526 21.564 2.52435e-29 -4.46145 0 299595 299595 -149614 6.44805e-10 7.78213e-11 4.44693e-11
231 1 Ni 58.71 5.526 3.744 23.346 1.26218e-29 -4.46145 0 299595 -149614 299595 -6.44805e-10 -3.3352e-10 3.00168e-10
232 1 Ni 58.71 3.744 5.526 23.346 1.26218e-29 -4.46145 0 -149614 299595 299595 -7.55979e-10 3.12675e-10 -0
233 2 Al 26.982 7.308 3.744 21.564 1.26218e-29 -5.12375 0 1.73393e+06 1.73393e+06 1.73393e+06 9.6356e-10 -8.96335e-11 -1.90384e-10
234 1 Ni 58.71 9.09 5.526 21.564 6.31089e-29 -4.46145 0 299595 299595 -149614 1.22291e-10 4.44693e-11 1.58422e-10
235 1 Ni 58.71 9.09 3.744 23.346 5.04871e-29 -4.46145 0 299595 -149614 299595 -6.61481e-10 -4.44693e-11 1.6676e-10
236 1 Ni 58.71 7.308 5.526 23.346 2.52435e-29 -4.46145 0 -149614 299595 299595 -1.68983e-09 -8.338e-11 6.6704e-11
237 2 Al 26.982 10.872 3.744 21.564 5.04871e-29 -5.12375 0 1.73393e+06 1.73393e+06 1.73393e+06 -7.33744e-10 -1.11173e-11 -1.55643e-10
238 1 Ni 58.71 10.872 5.526 23.346 6.31089e-29 -4.46145 0 -149614 299595 299595 8.56035e-10 6.22571e-10 2.22347e-11
239 2 Al 26.982 0.18 7.308 21.564 6.9617e-29 -5.12375 0 1.73393e+06 1.73393e+06 1.73393e+06 -2.2457e-09 -5.11397e-10 -1.55643e-10
240 1 Ni 58.71 1.962 7.308 23.346 1.34106e-29 -4.46145 0 299595 -149614 299595 6.44805e-10 1.22291e-10 -1.11173e-11
241 2 Al 26.982 3.744 7.308 21.564 1.26218e-29 -5.12375 0 1.73393e+06 1.73393e+06 1.73393e+06 1.03634e-09 4.09952e-11 -2.00459e-10
242 1 Ni 58.71 5.526 7.308 23.346 2.52435e-29 -4.46145 0 299595 -149614 299595 -1.67872e-09 -2.5014e-10 -8.89387e-11
243 2 Al 26.982 7.308 7.308 21.564 2.52435e-29 -5.12375 0 1.73393e+06 1.73393e+06 1.73393e+06 1.4892e-09 -6.80937e-11 -1.00056e-10
244 1 Ni 58.71 9.09 7.308 23.346 6.31089e-29 -4.46145 0 299595 -149614 299595 2.22347e-11 -8.89387e-11 5.0028e-11
245 2 Al 26.982 10.872 7.308 21.564 6.31089e-29 -5.12375 0 1.73393e+06 1.73393e+06 1.73393e+06 -1.00056e-10 1.00056e-10 -0
246 2 Al 26.982 0.18 0.18 25.128 9.21784e-28 -5.12375 0 1.73393e+06 1.73393e+06 1.73393e+06 9.33856e-10 -1.51196e-09 -1.42302e-09
247 1 Ni 58.71 1.962 1.962 25.128 8.09371e-28 -4.46145 0 299595 299595 -149614 6.15622e-10 -1.33408e-10 -1.00056e-10
248 2 Al 26.982 3.744 0.18 25.128 8.64789e-28 -5.12375 0 1.73393e+06 1.73393e+06 1.73393e+06 -9.97433e-10 5.70806e-10 -1.6009e-09