ITEM: TIMESTEP
15
ITEM: NUMBER OF ATOMS
4000
ITEM: BOX BOUNDS pp pp pp
2.7000000000000013e-01 3.5729999999999990e+01
2.7000000000000013e-01 3.5729999999999990e+01
2.7000000000000013e-01 3.5729999999999990e+01
ITEM: ATOMS id type element mass x y z c_csym c_potEnergy c_kinEnergy c_sigma[1] c_sigma[2] c_sigma[3] c_sigma[4] c_sigma[5] c_sigma[6]
1 2 Al 26.982 0.27 0.27 0.27 5.68571e-28 -5.1453 0 1.37752e+06 1.37752e+06 1.37752e+06 1.42302e-09 1.58978e-09 1.52307e-09
2 1 Ni 58.71 2.043 2.043 0.27 1.89524e-28 -4.45917 0 16102.1 16102.1 -495630 7.28185e-10 -1.90106e-09 -1.81213e-09
3 1 Ni 58.71 2.043 0.27 2.043 1.89524e-28 -4.45917 0 16102.1 -495630 16102.1 -1.86771e-09 8.28241e-10 -1.72319e-09
4 1 Ni 58.71 0.27 2.043 2.043 1.89524e-28 -4.45917 0 -495630 16102.1 16102.1 -1.75654e-09 -1.77877e-09 8.30326e-10
5 2 Al 26.982 3.816 0.27 0.27 3.82203e-28 -5.1453 0 1.37752e+06 1.37752e+06 1.37752e+06 1.15724e-09 1.21231e-09 9.33856e-10
6 1 Ni 58.71 5.589 2.043 0.27 2.40011e-28 -4.45917 0 16102.1 16102.1 -495630 -1.83436e-10 1.38967e-10 -1.7343e-09
7 1 Ni 58.71 5.589 0.27 2.043 2.40011e-28 -4.45917 0 16102.1 -495630 16102.1 1.6676e-11 -1.05615e-10 -1.46749e-09
8 1 Ni 58.71 3.816 2.043 2.043 3.15544e-30 -4.45917 0 -495630 16102.1 16102.1 -8.1365e-10 -8.08091e-10 6.51754e-10
9 2 Al 26.982 7.362 0.27 0.27 5.80996e-28 -5.1453 0 1.37752e+06 1.37752e+06 1.37752e+06 -1.54253e-10 -2.4875e-10 1.37855e-09
10 1 Ni 58.71 9.135 2.043 0.27 3.91472e-28 -4.45917 0 16102.1 16102.1 -495630 5.0028e-11 -0 -1.81768e-09
11 1 Ni 58.71 9.135 0.27 2.043 3.91472e-28 -4.45917 0 16102.1 -495630 16102.1 -1.22291e-10 -5.55867e-11 -1.82324e-09
12 1 Ni 58.71 7.362 2.043 2.043 2.01948e-28 -4.45917 0 -495630 16102.1 16102.1 -0 1.11173e-11 8.85218e-10
13 2 Al 26.982 10.908 0.27 0.27 4.29535e-28 -5.1453 0 1.37752e+06 1.37752e+06 1.37752e+06 -1.40078e-09 -1.38967e-09 1.35631e-09
14 1 Ni 58.71 10.908 2.043 2.043 5.04871e-29 -4.45917 0 -495630 16102.1 16102.1 7.11509e-10 6.6704e-10 8.96335e-10
15 2 Al 26.982 0.27 3.816 0.27 3.82203e-28 -5.1453 0 1.37752e+06 1.37752e+06 1.37752e+06 7.44861e-09 1.82324e-09 6.00336e-10
16 1 Ni 58.71 2.043 5.589 0.27 2.40011e-28 -4.45917 0 16102.1 16102.1 -495630 -2.64037e-11 -1.83992e-09 7.22627e-11
17 1 Ni 58.71 2.043 3.816 2.043 3.15544e-30 -4.45917 0 16102.1 -495630 16102.1 -6.89275e-10 7.03866e-10 -7.96974e-10
18 1 Ni 58.71 0.27 5.589 2.043 2.40011e-28 -4.45917 0 -495630 16102.1 16102.1 -0 -1.53419e-09 -6.2535e-12
19 2 Al 26.982 3.816 3.816 0.27 1.95835e-28 -5.1453 0 1.37752e+06 1.37752e+06 1.37752e+06 -1.2302e-09 1.52203e-09 1.51543e-09
20 1 Ni 58.71 5.589 5.589 0.27 2.90498e-28 -4.45917 0 16102.1 16102.1 -495630 -1.42302e-09 -6.6704e-11 -1.11173e-10
21 1 Ni 58.71 5.589 3.816 2.043 5.36425e-29 -4.45917 0 16102.1 -495630 16102.1 1.88439e-09 1.22291e-10 -8.11565e-10
22 1 Ni 58.71 3.816 5.589 2.043 5.36425e-29 -4.45917 0 -495630 16102.1 16102.1 1.87327e-09 -7.91415e-10 3.61313e-11
23 2 Al 26.982 7.362 3.816 0.27 3.94628e-28 -5.1453 0 1.37752e+06 1.37752e+06 1.37752e+06 -1.21214e-09 2.26168e-10 1.64502e-09
24 1 Ni 58.71 9.135 5.589 0.27 4.41959e-28 -4.45917 0 16102.1 16102.1 -495630 -1.44525e-09 1.44525e-10 6.11453e-11
25 1 Ni 58.71 9.135 3.816 2.043 2.05104e-28 -4.45917 0 16102.1 -495630 16102.1 1.57866e-09 -1.22291e-10 -6.50364e-10
26 1 Ni 58.71 7.362 5.589 2.043 2.52435e-28 -4.45917 0 -495630 16102.1 16102.1 1.67872e-09 1.77877e-10 -9.79715e-11
27 2 Al 26.982 10.908 3.816 0.27 2.43166e-28 -5.1453 0 1.37752e+06 1.37752e+06 1.37752e+06 -8.89387e-10 -1.42302e-09 1.5196e-09
28 1 Ni 58.71 10.908 5.589 2.043 1.00974e-28 -4.45917 0 -495630 16102.1 16102.1 -1.11173e-11 6.22571e-10 -1.87605e-11
29 2 Al 26.982 0.27 7.362 0.27 5.80996e-28 -5.1453 0 1.37752e+06 1.37752e+06 1.37752e+06 5.78101e-09 2.2457e-09 -6.6704e-10
30 1 Ni 58.71 2.043 7.362 2.043 2.01948e-28 -4.45917 0 16102.1 -495630 16102.1 -0 6.2674e-10 -8.89387e-11
31 2 Al 26.982 3.816 7.362 0.27 3.94628e-28 -5.1453 0 1.37752e+06 1.37752e+06 1.37752e+06 -1.23229e-09 1.63355e-09 2.66816e-10
32 1 Ni 58.71 5.589 7.362 2.043 2.52435e-28 -4.45917 0 16102.1 -495630 16102.1 1.63981e-09 -0 1.11173e-10
33 2 Al 26.982 7.362 7.362 0.27 5.93421e-28 -5.1453 0 1.37752e+06 1.37752e+06 1.37752e+06 -1.39505e-09 -2.45276e-10 -2.22347e-10
34 1 Ni 58.71 9.135 7.362 2.043 4.03897e-28 -4.45917 0 16102.1 -495630 16102.1 1.61201e-09 5.55867e-11 -5.55867e-12
35 2 Al 26.982 10.908 7.362 0.27 4.41959e-28 -5.1453 0 1.37752e+06 1.37752e+06 1.37752e+06 -2.00112e-10 -1.7343e-09 1.55643e-10
36 2 Al 26.982 0.27 0.27 3.816 3.82203e-28 -5.1453 0 1.37752e+06 1.37752e+06 1.37752e+06 1.1562e-09 8.04895e-09 8.10454e-09
37 1 Ni 58.71 2.043 2.043 3.816 3.15544e-30 -4.45917 0 16102.1 16102.1 -495630 6.94833e-10 -6.44805e-10 -7.05951e-10
38 1 Ni 58.71 2.043 0.27 5.589 2.40011e-28 -4.45917 0 16102.1 -495630 16102.1 -1.86771e-09 -4.86383e-11 1.83436e-10
39 1 Ni 58.71 0.27 2.043 5.589 2.40011e-28 -4.45917 0 -495630 16102.1 16102.1 -1.86771e-09 2.22347e-10 1.11173e-11
40 2 Al 26.982 3.816 0.27 3.816 1.95835e-28 -5.1453 0 1.37752e+06 1.37752e+06 1.37752e+06 1.63703e-09 -9.57828e-10 8.36023e-09
41 1 Ni 58.71 5.589 2.043 3.816 5.36425e-29 -4.45917 0 16102.1 16102.1 -495630 1.58422e-10 1.83992e-09 -6.6704e-10
42 1 Ni 58.71 5.589 0.27 5.589 2.90498e-28 -4.45917 0 16102.1 -495630 16102.1 -2.11229e-10 -1.47861e-09 2.22347e-11
43 1 Ni 58.71 3.816 2.043 5.589 5.36425e-29 -4.45917 0 -495630 16102.1 16102.1 -6.52448e-10 1.81351e-09 9.24128e-11
44 2 Al 26.982 7.362 0.27 3.816 3.94628e-28 -5.1453 0 1.37752e+06 1.37752e+06 1.37752e+06 1.89342e-10 -1.02662e-09 8.4047e-09
45 1 Ni 58.71 9.135 2.043 3.816 2.05104e-28 -4.45917 0 16102.1 16102.1 -495630 -8.12955e-11 1.75654e-09 -6.11453e-10
46 1 Ni 58.71 9.135 0.27 5.589 4.41959e-28 -4.45917 0 16102.1 -495630 16102.1 3.3352e-11 -1.53419e-09 8.338e-11
47 1 Ni 58.71 7.362 2.043 5.589 2.52435e-28 -4.45917 0 -495630 16102.1 16102.1 -1.6676e-11 1.65648e-09 -8.338e-12
48 2 Al 26.982 10.908 0.27 3.816 2.43166e-28 -5.1453 0 1.37752e+06 1.37752e+06 1.37752e+06 -1.46749e-09 -9.56091e-10 8.51588e-09
49 1 Ni 58.71 10.908 2.043 5.589 1.00974e-28 -4.45917 0 -495630 16102.1 16102.1 8.00448e-10 2.89051e-10 8.89387e-11
50 2 Al 26.982 0.27 3.816 3.816 1.95835e-28 -5.1453 0 1.37752e+06 1.37752e+06 1.37752e+06 7.92666e-09 7.59314e-09 -2.00112e-10
51 1 Ni 58.71 2.043 5.589 3.816 5.36425e-29 -4.45917 0 16102.1 16102.1 -495630 1.55643e-10 -6.6704e-10 1.83575e-09
52 1 Ni 58.71 2.043 3.816 5.589 5.36425e-29 -4.45917 0 16102.1 -495630 16102.1 -6.22571e-10 1.00056e-10 1.82324e-09
53 1 Ni 58.71 0.27 5.589 5.589 2.90498e-28 -4.45917 0 -495630 16102.1 16102.1 -1.22291e-10 1.33408e-10 -1.52307e-09
54 2 Al 26.982 3.816 3.816 3.816 9.46633e-30 -5.1453 0 1.37752e+06 1.37752e+06 1.37752e+06 -1.21631e-09 -9.90832e-10 -1.06448e-09
55 1 Ni 58.71 5.589 5.589 3.816 1.0413e-28 -4.45917 0 16102.1 16102.1 -495630 -1.68983e-09 2.05671e-09 1.99e-09
56 1 Ni 58.71 5.589 3.816 5.589 1.0413e-28 -4.45917 0 16102.1 -495630 16102.1 2.10118e-09 -1.68983e-09 1.83436e-09
57 1 Ni 58.71 3.816 5.589 5.589 1.0413e-28 -4.45917 0 -495630 16102.1 16102.1 2.14565e-09 1.84687e-09 -1.64537e-09
58 2 Al 26.982 7.362 3.816 3.816 2.08259e-28 -5.1453 0 1.37752e+06 1.37752e+06 1.37752e+06 -1.64484e-09 -1.59916e-09 -1.16697e-09
59 1 Ni 58.71 9.135 5.589 3.816 2.55591e-28 -4.45917 0 16102.1 16102.1 -495630 -1.36743e-09 1.46749e-09 2.11924e-09
60 1 Ni 58.71 9.135 3.816 5.589 2.55591e-28 -4.45917 0 16102.1 -495630 16102.1 1.66204e-09 -1.42302e-09 2.09006e-09
61 1 Ni 58.71 7.362 5.589 5.589 3.02923e-28 -4.45917 0 -495630 16102.1 16102.1 1.42858e-09 1.65648e-09 -1.40078e-09
62 2 Al 26.982 10.908 3.816 3.816 5.6798e-29 -5.1453 0 1.37752e+06 1.37752e+06 1.37752e+06 -1.00056e-09 -8.89387e-10 -9.56091e-10
63 1 Ni 58.71 10.908 5.589 5.589 1.51461e-28 -4.45917 0 -495630 16102.1 16102.1 -2.22347e-11 -1.83436e-10 -1.51196e-09
64 2 Al 26.982 0.27 7.362 3.816 3.94628e-28 -5.1453 0 1.37752e+06 1.37752e+06 1.37752e+06 6.28129e-09 7.93778e-09 -7.55979e-10
65 1 Ni 58.71 2.043 7.362 5.589 2.52435e-28 -4.45917 0 16102.1 -495630 16102.1 1.22291e-10 -3.3352e-11 1.68983e-09
66 2 Al 26.982 3.816 7.362 3.816 2.08259e-28 -5.1453 0 1.37752e+06 1.37752e+06 1.37752e+06 -1.74681e-09 -1.13501e-09 -1.66795e-09
67 1 Ni 58.71 5.589 7.362 5.589 3.02923e-28 -4.45917 0 16102.1 -495630 16102.1 1.47861e-09 -1.3452e-09 1.77877e-09
68 2 Al 26.982 7.362 7.362 3.816 4.07052e-28 -5.1453 0 1.37752e+06 1.37752e+06 1.37752e+06 -1.30837e-09 -1.76939e-09 -1.71346e-09
69 1 Ni 58.71 9.135 7.362 5.589 4.54384e-28 -4.45917 0 16102.1 -495630 16102.1 1.80101e-09 -1.44525e-09 1.67316e-09
70 2 Al 26.982 10.908 7.362 3.816 2.55591e-28 -5.1453 0 1.37752e+06 1.37752e+06 1.37752e+06 4.44693e-11 -6.00336e-10 -1.7343e-09
71 2 Al 26.982 0.27 0.27 7.362 5.80996e-28 -5.1453 0 1.37752e+06 1.37752e+06 1.37752e+06 1.45637e-09 6.71487e-09 6.74822e-09
72 1 Ni 58.71 2.043 2.043 7.362 2.01948e-28 -4.45917 0 16102.1 16102.1 -495630 7.17068e-10 -8.89387e-11 2.44581e-10
73 2 Al 26.982 3.816 0.27 7.362 3.94628e-28 -5.1453 0 1.37752e+06 1.37752e+06 1.37752e+06 1.7482e-09 -1.50292e-09 6.89275e-09
74 1 Ni 58.71 5.589 2.043 7.362 2.52435e-28 -4.45917 0 16102.1 16102.1 -495630 2.22347e-11 1.79545e-09 1.33408e-10
75 2 Al 26.982 7.362 0.27 7.362 5.93421e-28 -5.1453 0 1.37752e+06 1.37752e+06 1.37752e+06 -1.00751e-10 -1.44491e-09 6.58146e-09
76 1 Ni 58.71 9.135 2.043 7.362 4.03897e-28 -4.45917 0 16102.1 16102.1 -495630 -1.38967e-11 1.68983e-09 -7.22627e-11
77 2 Al 26.982 10.908 0.27 7.362 4.41959e-28 -5.1453 0 1.37752e+06 1.37752e+06 1.37752e+06 -2.03447e-09 -1.55643e-10 6.7371e-09
78 2 Al 26.982 0.27 3.816 7.362 3.94628e-28 -5.1453 0 1.37752e+06 1.37752e+06 1.37752e+06 7.81548e-09 6.47029e-09 -1.14509e-09
79 1 Ni 58.71 2.043 5.589 7.362 2.52435e-28 -4.45917 0 16102.1 16102.1 -495630 9.72767e-11 2.22347e-11 1.72249e-09
80 2 Al 26.982 3.816 3.816 7.362 2.08259e-28 -5.1453 0 1.37752e+06 1.37752e+06 1.37752e+06 -1.365e-09 -1.66795e-09 -1.47895e-09
81 1 Ni 58.71 5.589 5.589 7.362 3.02923e-28 -4.45917 0 16102.1 16102.1 -495630 -1.42302e-09 1.58422e-09 1.68844e-09
82 2 Al 26.982 7.362 3.816 7.362 4.07052e-28 -5.1453 0 1.37752e+06 1.37752e+06 1.37752e+06 -1.6405e-09 -1.60854e-09 -1.7555e-09
83 1 Ni 58.71 9.135 5.589 7.362 4.54384e-28 -4.45917 0 16102.1 16102.1 -495630 -1.36743e-09 1.6676e-09 1.52238e-09
84 2 Al 26.982 10.908 3.816 7.362 2.55591e-28 -5.1453 0 1.37752e+06 1.37752e+06 1.37752e+06 -7.55979e-10 -1.44525e-10 -1.55643e-09
85 2 Al 26.982 0.27 7.362 7.362 5.93421e-28 -5.1453 0 1.37752e+06 1.37752e+06 1.37752e+06 5.89775e-09 6.31465e-09 -1.21179e-09
86 2 Al 26.982 3.816 7.362 7.362 4.07052e-28 -5.1453 0 1.37752e+06 1.37752e+06 1.37752e+06 -1.73882e-09 -1.67837e-09 -1.46749e-09
87 2 Al 26.982 7.362 7.362 7.362 6.05845e-28 -5.1453 0 1.37752e+06 1.37752e+06 1.37752e+06 -1.49042e-09 -1.4932e-09 -1.51196e-09
88 2 Al 26.982 10.908 7.362 7.362 4.54384e-28 -5.1453 0 1.37752e+06 1.37752e+06 1.37752e+06 3.83548e-10 3.55755e-10 -1.65648e-09
89 1 Ni 58.71 2.043 0.27 9.135 3.91472e-28 -4.45917 0 16102.1 -495630 16102.1 -1.95665e-09 -3.3352e-11 -1.55643e-10
90 1 Ni 58.71 0.27 2.043 9.135 3.91472e-28 -4.45917 0 -495630 16102.1 16102.1 -1.93442e-09 1.6676e-11 2.22347e-11
91 1 Ni 58.71 5.589 0.27 9.135 4.41959e-28 -4.45917 0 16102.1 -495630 16102.1 5.0028e-11 -1.45637e-09 -0
92 1 Ni 58.71 3.816 2.043 9.135 2.05104e-28 -4.45917 0 -495630 16102.1 16102.1 -6.13538e-10 1.71207e-09 6.6704e-11
93 1 Ni 58.71 9.135 0.27 9.135 5.93421e-28 -4.45917 0 16102.1 -495630 16102.1 2.66816e-10 -1.50084e-09 7.22627e-11
94 1 Ni 58.71 7.362 2.043 9.135 4.03897e-28 -4.45917 0 -495630 16102.1 16102.1 7.78213e-11 1.68428e-09 -2.22347e-11
95 1 Ni 58.71 10.908 2.043 9.135 2.52435e-28 -4.45917 0 -495630 16102.1 16102.1 8.00448e-10 3.89107e-10 -2.22347e-11
96 1 Ni 58.71 2.043 3.816 9.135 2.05104e-28 -4.45917 0 16102.1 -495630 16102.1 -4.89163e-10 3.3352e-11 1.78433e-09
97 1 Ni 58.71 0.27 5.589 9.135 4.41959e-28 -4.45917 0 -495630 16102.1 16102.1 7.78213e-11 3.05727e-10 -1.47861e-09
98 1 Ni 58.71 5.589 3.816 9.135 2.55591e-28 -4.45917 0 16102.1 -495630 16102.1 2.22903e-09 -1.49528e-09 1.64537e-09
99 1 Ni 58.71 3.816 5.589 9.135 2.55591e-28 -4.45917 0 -495630 16102.1 16102.1 2.16927e-09 1.55643e-09 -1.48972e-09
100 1 Ni 58.71 9.135 3.816 9.135 4.07052e-28 -4.45917 0 16102.1 -495630 16102.1 1.85659e-09 -1.51196e-09 1.75654e-09
101 1 Ni 58.71 7.362 5.589 9.135 4.54384e-28 -4.45917 0 -495630 16102.1 16102.1 1.58978e-09 1.75098e-09 -1.42302e-09
102 1 Ni 58.71 10.908 5.589 9.135 3.02923e-28 -4.45917 0 -495630 16102.1 16102.1 1.6676e-10 1.11173e-11 -1.44525e-09
103 1 Ni 58.71 2.043 7.362 9.135 4.03897e-28 -4.45917 0 16102.1 -495630 16102.1 1.44525e-10 1.11173e-11 1.60645e-09
104 1 Ni 58.71 5.589 7.362 9.135 4.54384e-28 -4.45917 0 16102.1 -495630 16102.1 1.51196e-09 -1.44838e-09 1.97889e-09
105 1 Ni 58.71 9.135 7.362 9.135 6.05845e-28 -4.45917 0 16102.1 -495630 16102.1 1.68983e-09 -1.48972e-09 1.8288e-09
106 2 Al 26.982 0.27 0.27 10.908 4.29535e-28 -5.1453 0 1.37752e+06 1.37752e+06 1.37752e+06 1.44525e-09 -9.78325e-10 -9.44973e-10
107 1 Ni 58.71 2.043 2.043 10.908 5.04871e-29 -4.45917 0 16102.1 16102.1 -495630 6.60786e-10 8.56035e-10 8.08091e-10
108 1 Ni 58.71 2.043 0.27 12.681 2.40011e-28 -4.45917 0 16102.1 -495630 16102.1 -2.05671e-09 -8.67152e-10 9.16068e-09
109 1 Ni 58.71 0.27 2.043 12.681 2.40011e-28 -4.45917 0 -495630 16102.1 16102.1 -1.96777e-09 8.96057e-09 -8.22683e-10
110 2 Al 26.982 3.816 0.27 10.908 2.43166e-28 -5.1453 0 1.37752e+06 1.37752e+06 1.37752e+06 1.41364e-09 -7.75434e-10 -9.33856e-10
111 1 Ni 58.71 5.589 2.043 10.908 1.00974e-28 -4.45917 0 16102.1 16102.1 -495630 -6.6704e-11 1.05615e-10 9.53311e-10
112 1 Ni 58.71 5.589 0.27 12.681 2.90498e-28 -4.45917 0 16102.1 -495630 16102.1 -4.00224e-10 5.07228e-11 9.00504e-09
113 1 Ni 58.71 3.816 2.043 12.681 5.36425e-29 -4.45917 0 -495630 16102.1 16102.1 -8.08091e-10 9.56091e-10 -7.33744e-10
114 2 Al 26.982 7.362 0.27 10.908 4.41959e-28 -5.1453 0 1.37752e+06 1.37752e+06 1.37752e+06 4.51642e-11 -1.15863e-10 -1.24514e-09
115 1 Ni 58.71 9.135 2.043 10.908 2.52435e-28 -4.45917 0 16102.1 16102.1 -495630 9.38025e-11 4.00224e-10 9.30382e-10
116 1 Ni 58.71 9.135 0.27 12.681 4.41959e-28 -4.45917 0 16102.1 -495630 16102.1 -6.6704e-11 1.42302e-09 8.99392e-09
117 1 Ni 58.71 7.362 2.043 12.681 2.52435e-28 -4.45917 0 -495630 16102.1 16102.1 5.48918e-11 -1.71207e-09 -5.78101e-10
118 2 Al 26.982 10.908 0.27 10.908 2.90498e-28 -5.1453 0 1.37752e+06 1.37752e+06 1.37752e+06 -1.57866e-09 1.01168e-09 -9.33856e-10
119 1 Ni 58.71 10.908 2.043 12.681 1.00974e-28 -4.45917 0 -495630 16102.1 16102.1 8.89387e-10 -9.22739e-10 -7.44861e-10
120 2 Al 26.982 0.27 3.816 10.908 2.43166e-28 -5.1453 0 1.37752e+06 1.37752e+06 1.37752e+06 8.29353e-09 -8.00448e-10 -6.9935e-10
121 1 Ni 58.71 2.043 5.589 10.908 1.00974e-28 -4.45917 0 16102.1 16102.1 -495630 1.94553e-10 9.95001e-10 2.70985e-11
122 1 Ni 58.71 2.043 3.816 12.681 5.36425e-29 -4.45917 0 16102.1 -495630 16102.1 -4.89163e-10 -6.6704e-10 9.06063e-10
123 1 Ni 58.71 0.27 5.589 12.681 2.90498e-28 -4.45917 0 -495630 16102.1 16102.1 -5.0028e-10 8.9161e-09 2.33464e-10
124 2 Al 26.982 3.816 3.816 10.908 5.6798e-29 -5.1453 0 1.37752e+06 1.37752e+06 1.37752e+06 -1.2646e-09 -9.14227e-10 -9.20654e-10
125 1 Ni 58.71 5.589 5.589 10.908 1.51461e-28 -4.45917 0 16102.1 16102.1 -495630 -1.42858e-09 6.6704e-11 4.93332e-11
126 1 Ni 58.71 5.589 3.816 12.681 1.0413e-28 -4.45917 0 16102.1 -495630 16102.1 2.12341e-09 8.92861e-11 7.83772e-10
127 1 Ni 58.71 3.816 5.589 12.681 1.0413e-28 -4.45917 0 -495630 16102.1 16102.1 2.10118e-09 8.50476e-10 5.59341e-11
128 2 Al 26.982 7.362 3.816 10.908 2.55591e-28 -5.1453 0 1.37752e+06 1.37752e+06 1.37752e+06 -1.54322e-09 -2.04976e-10 -6.04505e-10
129 1 Ni 58.71 9.135 5.589 10.908 3.02923e-28 -4.45917 0 16102.1 16102.1 -495630 -1.36743e-09 -3.3352e-11 1.61201e-10
130 1 Ni 58.71 9.135 3.816 12.681 2.55591e-28 -4.45917 0 16102.1 -495630 16102.1 1.67872e-09 1.38967e-09 6.61481e-10
131 1 Ni 58.71 7.362 5.589 12.681 3.02923e-28 -4.45917 0 -495630 16102.1 16102.1 1.72319e-09 -1.55087e-09 2.55351e-10
132 2 Al 26.982 10.908 3.816 10.908 1.0413e-28 -5.1453 0 1.37752e+06 1.37752e+06 1.37752e+06 -8.22683e-10 1.06726e-09 -9.22739e-10
133 1 Ni 58.71 10.908 5.589 12.681 1.51461e-28 -4.45917 0 -495630 16102.1 16102.1 -8.89387e-11 -9.00504e-10 -2.22347e-11
134 2 Al 26.982 0.27 7.362 10.908 4.41959e-28 -5.1453 0 1.37752e+06 1.37752e+06 1.37752e+06 6.49252e-09 -1.37855e-09 -4.44693e-11
135 1 Ni 58.71 2.043 7.362 12.681 2.52435e-28 -4.45917 0 16102.1 -495630 16102.1 1.55643e-10 -7.22627e-10 -1.55643e-09
136 2 Al 26.982 3.816 7.362 10.908 2.55591e-28 -5.1453 0 1.37752e+06 1.37752e+06 1.37752e+06 -1.53697e-09 -7.02824e-10 -1.77877e-10
137 1 Ni 58.71 5.589 7.362 12.681 3.02923e-28 -4.45917 0 16102.1 -495630 16102.1 1.74542e-09 2.10882e-10 -1.56199e-09
138 2 Al 26.982 7.362 7.362 10.908 4.54384e-28 -5.1453 0 1.37752e+06 1.37752e+06 1.37752e+06 -1.5057e-09 3.39079e-10 3.11285e-10
139 1 Ni 58.71 9.135 7.362 12.681 4.54384e-28 -4.45917 0 16102.1 -495630 16102.1 1.74542e-09 1.3452e-09 -1.54531e-09
140 2 Al 26.982 10.908 7.362 10.908 3.02923e-28 -5.1453 0 1.37752e+06 1.37752e+06 1.37752e+06 1.33408e-10 5.55867e-10 2.22347e-11
141 2 Al 26.982 0.27 0.27 14.454 4.29535e-28 -5.1453 0 1.37752e+06 1.37752e+06 1.37752e+06 1.80101e-09 3.11285e-10 2.11229e-10
142 1 Ni 58.71 2.043 2.043 14.454 5.04871e-29 -4.45917 0 16102.1 16102.1 -495630 7.38608e-10 3.12675e-11 -1.13258e-10
143 1 Ni 58.71 2.043 0.27 16.227 3.91472e-28 -4.45917 0 16102.1 -495630 16102.1 -1.87883e-09 6.22571e-10 6.94833e-09
144 1 Ni 58.71 0.27 2.043 16.227 3.91472e-28 -4.45917 0 -495630 16102.1 16102.1 -1.93442e-09 7.03727e-09 5.78101e-10
145 2 Al 26.982 3.816 0.27 14.454 2.43166e-28 -5.1453 0 1.37752e+06 1.37752e+06 1.37752e+06 1.4126e-09 -1.1899e-10 4.44693e-11
146 1 Ni 58.71 5.589 2.043 14.454 1.00974e-28 -4.45917 0 16102.1 16102.1 -495630 1.11173e-11 1.06726e-09 2.39023e-10
147 1 Ni 58.71 5.589 0.27 16.227 4.41959e-28 -4.45917 0 16102.1 -495630 16102.1 -1.88995e-10 -5.8366e-10 6.95945e-09
148 1 Ni 58.71 3.816 2.043 16.227 2.05104e-28 -4.45917 0 -495630 16102.1 16102.1 -6.39941e-10 -4.55811e-10 4.44693e-10
149 2 Al 26.982 7.362 0.27 14.454 4.41959e-28 -5.1453 0 1.37752e+06 1.37752e+06 1.37752e+06 -6.73988e-11 9.49837e-10 3.11285e-10
150 1 Ni 58.71 9.135 2.043 14.454 2.52435e-28 -4.45917 0 16102.1 16102.1 -495630 -1.73708e-11 -1.11173e-09 1.81351e-10
151 1 Ni 58.71 9.135 0.27 16.227 5.93421e-28 -4.45917 0 16102.1 -495630 16102.1 -7.78213e-11 -8.89387e-10 6.97057e-09
152 1 Ni 58.71 7.362 2.043 16.227 4.03897e-28 -4.45917 0 -495630 16102.1 16102.1 1.4383e-10 7.05951e-10 6.6704e-10
153 2 Al 26.982 10.908 0.27 14.454 2.90498e-28 -5.1453 0 1.37752e+06 1.37752e+06 1.37752e+06 -1.06726e-09 -9.56091e-10 3.3352e-10
154 1 Ni 58.71 10.908 2.043 16.227 2.52435e-28 -4.45917 0 -495630 16102.1 16102.1 8.67152e-10 1.30629e-09 5.33632e-10
155 2 Al 26.982 0.27 3.816 14.454 2.43166e-28 -5.1453 0 1.37752e+06 1.37752e+06 1.37752e+06 7.44861e-09 6.6704e-10 -4.66928e-10
156 1 Ni 58.71 2.043 5.589 14.454 1.00974e-28 -4.45917 0 16102.1 16102.1 -495630 2.77933e-11 3.25877e-10 1.00056e-09
157 1 Ni 58.71 2.043 3.816 16.227 2.05104e-28 -4.45917 0 16102.1 -495630 16102.1 -5.66984e-10 5.44749e-10 -5.94777e-10
158 1 Ni 58.71 0.27 5.589 16.227 4.41959e-28 -4.45917 0 -495630 16102.1 16102.1 -2.55699e-10 6.98168e-09 -6.89275e-10
159 2 Al 26.982 3.816 3.816 14.454 5.6798e-29 -5.1453 0 1.37752e+06 1.37752e+06 1.37752e+06 -1.20032e-09 -2.37459e-10 -3.36994e-10
160 1 Ni 58.71 5.589 5.589 14.454 1.51461e-28 -4.45917 0 16102.1 16102.1 -495630 -1.48972e-09 9.50532e-10 1.02279e-09
161 1 Ni 58.71 5.589 3.816 16.227 2.55591e-28 -4.45917 0 16102.1 -495630 16102.1 1.80101e-09 -5.22515e-10 -6.72599e-10
162 1 Ni 58.71 3.816 5.589 16.227 2.55591e-28 -4.45917 0 -495630 16102.1 16102.1 1.77877e-09 -6.50364e-10 -5.89219e-10
163 2 Al 26.982 7.362 3.816 14.454 2.55591e-28 -5.1453 0 1.37752e+06 1.37752e+06 1.37752e+06 -1.41555e-09 9.1857e-10 8.47697e-11
164 1 Ni 58.71 9.135 5.589 14.454 3.02923e-28 -4.45917 0 16102.1 16102.1 -495630 -1.45637e-09 -7.67096e-10 1.02279e-09
165 1 Ni 58.71 9.135 3.816 16.227 4.07052e-28 -4.45917 0 16102.1 -495630 16102.1 1.57866e-09 -7.44861e-10 -7.44861e-10
166 1 Ni 58.71 7.362 5.589 16.227 4.54384e-28 -4.45917 0 -495630 16102.1 16102.1 1.78989e-09 7.94889e-10 -4.22459e-10
167 2 Al 26.982 10.908 3.816 14.454 1.0413e-28 -5.1453 0 1.37752e+06 1.37752e+06 1.37752e+06 -7.55979e-10 -1.02279e-09 -1.35145e-10
168 1 Ni 58.71 10.908 5.589 16.227 3.02923e-28 -4.45917 0 -495630 16102.1 16102.1 1.33408e-10 1.56199e-09 -5.78101e-10
169 2 Al 26.982 0.27 7.362 14.454 4.41959e-28 -5.1453 0 1.37752e+06 1.37752e+06 1.37752e+06 5.82548e-09 8.00448e-10 5.89219e-10
170 1 Ni 58.71 2.043 7.362 16.227 4.03897e-28 -4.45917 0 16102.1 -495630 16102.1 2.55699e-10 5.78101e-10 7.55979e-10
171 2 Al 26.982 3.816 7.362 14.454 2.55591e-28 -5.1453 0 1.37752e+06 1.37752e+06 1.37752e+06 -1.35354e-09 1.22117e-10 8.89387e-10
172 1 Ni 58.71 5.589 7.362 16.227 4.54384e-28 -4.45917 0 16102.1 -495630 16102.1 1.81213e-09 -3.66872e-10 7.78213e-10
173 2 Al 26.982 7.362 7.362 14.454 4.54384e-28 -5.1453 0 1.37752e+06 1.37752e+06 1.37752e+06 -1.44126e-09 9.42194e-10 8.89387e-10
174 1 Ni 58.71 9.135 7.362 16.227 6.05845e-28 -4.45917 0 16102.1 -495630 16102.1 1.63425e-09 -6.33688e-10 8.00448e-10
175 2 Al 26.982 10.908 7.362 14.454 3.02923e-28 -5.1453 0 1.37752e+06 1.37752e+06 1.37752e+06 -4.44693e-11 -8.89387e-10 9.89443e-10
176 2 Al 26.982 0.27 0.27 18 1.18684e-27 -5.1453 0 1.37752e+06 1.37752e+06 1.37752e+06 1.55643e-09 -6.6704e-11 -5.55867e-11
177 1 Ni 58.71 2.043 2.043 18 8.07794e-28 -4.45917 0 16102.1 16102.1 -495630 8.83828e-10 -7.05951e-10 -7.28185e-10
178 1 Ni 58.71 2.043 0.27 19.773 9.97317e-28 -4.45917 0 16102.1 -495630 16102.1 -1.82324e-09 1.70373e-09 -1.87883e-09
179 1 Ni 58.71 0.27 2.043 19.773 9.97317e-28 -4.45917 0 -495630 16102.1 16102.1 -1.6009e-09 -1.91218e-09 1.68914e-09
180 2 Al 26.982 3.816 0.27 18 1.00047e-27 -5.1453 0 1.37752e+06 1.37752e+06 1.37752e+06 1.53593e-09 -4.91073e-10 4.44693e-11
181 1 Ni 58.71 5.589 2.043 18 8.58281e-28 -4.45917 0 16102.1 16102.1 -495630 5.55867e-12 1.80657e-09 -9.56091e-10
182 1 Ni 58.71 5.589 0.27 19.773 1.0478e-27 -4.45917 0 16102.1 -495630 16102.1 -2.44581e-10 -1.58422e-09 -1.86771e-09
183 1 Ni 58.71 3.816 2.043 19.773 8.10949e-28 -4.45917 0 -495630 16102.1 16102.1 -8.19208e-10 -1.22291e-10 1.6141e-09
184 2 Al 26.982 7.362 0.27 18 1.19927e-27 -5.1453 0 1.37752e+06 1.37752e+06 1.37752e+06 -1.98375e-10 -1.92469e-09 -5.78101e-10
185 1 Ni 58.71 9.135 2.043 18 1.00974e-27 -4.45917 0 16102.1 16102.1 -495630 -1.61896e-10 1.86771e-09 -7.22627e-10
186 1 Ni 58.71 9.135 0.27 19.773 1.19927e-27 -4.45917 0 16102.1 -495630 16102.1 2.89051e-10 -1.51196e-09 -1.55087e-09
187 1 Ni 58.71 7.362 2.043 19.773 1.00974e-27 -4.45917 0 -495630 16102.1 16102.1 1.6676e-11 1.75654e-09 1.546e-09
188 2 Al 26.982 10.908 0.27 18 1.0478e-27 -5.1453 0 1.37752e+06 1.37752e+06 1.37752e+06 -1.53419e-09 -4.44693e-10 -1.77877e-10
189 1 Ni 58.71 10.908 2.043 19.773 8.58281e-28 -4.45917 0 -495630 16102.1 16102.1 8.44917e-10 1.64537e-09 1.7482e-09
190 2 Al 26.982 0.27 3.816 18 1.00047e-27 -5.1453 0 1.37752e+06 1.37752e+06 1.37752e+06 7.80437e-09 7.33744e-10 -1.1562e-09
191 1 Ni 58.71 2.043 5.589 18 8.58281e-28 -4.45917 0 16102.1 16102.1 -495630 -3.47417e-12 -9.33856e-10 1.7343e-09
192 1 Ni 58.71 2.043 3.816 19.773 8.10949e-28 -4.45917 0 16102.1 -495630 16102.1 -7.55979e-10 1.61479e-09 -1.33408e-10
193 1 Ni 58.71 0.27 5.589 19.773 1.0478e-27 -4.45917 0 -495630 16102.1 16102.1 -1.11173e-10 -1.95665e-09 -1.65579e-09
194 2 Al 26.982 3.816 3.816 18 8.14104e-28 -5.1453 0 1.37752e+06 1.37752e+06 1.37752e+06 -1.49806e-09 -7.86551e-10 -7.68833e-10
195 1 Ni 58.71 5.589 5.589 18 9.08768e-28 -4.45917 0 16102.1 16102.1 -495630 -1.55643e-09 1.63425e-09 1.6009e-09
196 1 Ni 58.71 5.589 3.816 19.773 8.61436e-28 -4.45917 0 16102.1 -495630 16102.1 2.00668e-09 -1.62313e-09 -1.55643e-10
197 1 Ni 58.71 3.816 5.589 19.773 8.61436e-28 -4.45917 0 -495630 16102.1 16102.1 1.8288e-09 -1.72319e-10 -1.64398e-09
198 2 Al 26.982 7.362 3.816 18 1.0129e-27 -5.1453 0 1.37752e+06 1.37752e+06 1.37752e+06 -1.33981e-09 -1.8698e-09 -4.54768e-10
199 1 Ni 58.71 9.135 5.589 18 1.06023e-27 -4.45917 0 16102.1 16102.1 -495630 -1.36743e-09 1.56754e-09 1.70651e-09
200 1 Ni 58.71 9.135 3.816 19.773 1.0129e-27 -4.45917 0 16102.1 -495630 16102.1 1.46749e-09 -1.58978e-09 -1.72319e-10
201 1 Ni 58.71 7.362 5.589 19.773 1.06023e-27 -4.45917 0 -495630 16102.1 16102.1 1.64537e-09 1.96777e-09 -1.47652e-09
202 2 Al 26.982 10.908 3.816 18 8.61436e-28 -5.1453 0 1.37752e+06 1.37752e+06 1.37752e+06 -6.6704e-10 -4.89163e-10 -9.77283e-10
203 1 Ni 58.71 10.908 5.589 19.773 9.08768e-28 -4.45917 0 -495630 16102.1 16102.1 2.89051e-10 1.6676e-09 -1.56685e-09
204 2 Al 26.982 0.27 7.362 18 1.19927e-27 -5.1453 0 1.37752e+06 1.37752e+06 1.37752e+06 6.00336e-09 3.77989e-10 -2.62369e-09
205 1 Ni 58.71 2.043 7.362 19.773 1.00974e-27 -4.45917 0 16102.1 -495630 16102.1 2.89051e-10 1.49876e-09 1.63981e-09
206 2 Al 26.982 3.816 7.362 18 1.0129e-27 -5.1453 0 1.37752e+06 1.37752e+06 1.37752e+06 -1.36326e-09 -5.72195e-10 -1.91218e-09
207 1 Ni 58.71 5.589 7.362 19.773 1.06023e-27 -4.45917 0 16102.1 -495630 16102.1 1.63981e-09 -1.40704e-09 1.88995e-09
208 2 Al 26.982 7.362 7.362 18 1.21169e-27 -5.1453 0 1.37752e+06 1.37752e+06 1.37752e+06 -1.2712e-09 -1.74264e-09 -1.82324e-09
209 1 Ni 58.71 9.135 7.362 19.773 1.21169e-27 -4.45917 0 16102.1 -495630 16102.1 1.57866e-09 -1.52307e-09 1.77877e-09
210 2 Al 26.982 10.908 7.362 18 1.06023e-27 -5.1453 0 1.37752e+06 1.37752e+06 1.37752e+06 1.55643e-10 -3.77989e-10 -1.94553e-09
211 2 Al 26.982 0.27 0.27 21.546 1.18684e-27 -5.1453 0 1.37752e+06 1.37752e+06 1.37752e+06 1.25626e-09 8.2713e-09 8.21571e-09
212 1 Ni 58.71 2.043 2.043 21.546 8.07794e-28 -4.45917 0 16102.1 16102.1 -495630 6.28129e-10 -1.77877e-09 -1.84548e-09
213 1 Ni 58.71 2.043 0.27 23.319 9.97317e-28 -4.45917 0 16102.1 -495630 16102.1 -1.84548e-09 7.35134e-10 2.83492e-10
214 1 Ni 58.71 0.27 2.043 23.319 9.97317e-28 -4.45917 0 -495630 16102.1 16102.1 -1.86771e-09 2.66816e-10 7.33744e-10
215 2 Al 26.982 3.816 0.27 21.546 1.00047e-27 -5.1453 0 1.37752e+06 1.37752e+06 1.37752e+06 1.65023e-09 -3.51586e-10 8.36023e-09
216 1 Ni 58.71 5.589 2.043 21.546 8.58281e-28 -4.45917 0 16102.1 16102.1 -495630 -2.77933e-11 1.63425e-09 -1.6676e-09
217 1 Ni 58.71 5.589 0.27 23.319 1.0478e-27 -4.45917 0 16102.1 -495630 16102.1 -7.78213e-11 -1.50084e-09 8.89387e-11
218 1 Ni 58.71 3.816 2.043 23.319 8.10949e-28 -4.45917 0 -495630 16102.1 16102.1 -6.69124e-10 7.87246e-10 5.46139e-10
219 2 Al 26.982 7.362 0.27 21.546 1.19927e-27 -5.1453 0 1.37752e+06 1.37752e+06 1.37752e+06 -6.30561e-10 -1.26008e-09 8.62705e-09
220 1 Ni 58.71 9.135 2.043 21.546 1.00974e-27 -4.45917 0 16102.1 16102.1 -495630 -1.48694e-10 1.0895e-09 -1.56754e-09
221 1 Ni 58.71 9.135 0.27 23.319 1.19927e-27 -4.45917 0 16102.1 -495630 16102.1 2.44581e-10 -1.42302e-09 4.33576e-10
222 1 Ni 58.71 7.362 2.043 23.319 1.00974e-27 -4.45917 0 -495630 16102.1 16102.1 1.61201e-10 1.88995e-09 6.79547e-10
223 2 Al 26.982 10.908 0.27 21.546 1.0478e-27 -5.1453 0 1.37752e+06 1.37752e+06 1.37752e+06 -1.37855e-09 -1.44525e-09 8.42694e-09
224 1 Ni 58.71 10.908 2.043 23.319 8.58281e-28 -4.45917 0 -495630 16102.1 16102.1 7.11509e-10 6.11453e-10 8.89387e-10
225 2 Al 26.982 0.27 3.816 21.546 1.00047e-27 -5.1453 0 1.37752e+06 1.37752e+06 1.37752e+06 7.80437e-09 7.59314e-09 2.22347e-10
226 1 Ni 58.71 2.043 5.589 21.546 8.58281e-28 -4.45917 0 16102.1 16102.1 -495630 -7.5042e-11 -1.51196e-09 1.61618e-09
227 1 Ni 58.71 2.043 3.816 23.319 8.10949e-28 -4.45917 0 16102.1 -495630 16102.1 -5.44749e-10 5.66984e-10 7.5042e-10
228 1 Ni 58.71 0.27 5.589 23.319 1.0478e-27 -4.45917 0 -495630 16102.1 16102.1 -1.88995e-10 8.89387e-11 -1.33408e-09
229 2 Al 26.982 3.816 3.816 21.546 8.14104e-28 -5.1453 0 1.37752e+06 1.37752e+06 1.37752e+06 -1.52481e-09 -1.95943e-10 -2.4875e-10
230 1 Ni 58.71 5.589 5.589 21.546 9.08768e-28 -4.45917 0 16102.1 16102.1 -495630 -1.24514e-09 1.76766e-09 1.81213e-09
231 1 Ni 58.71 5.589 3.816 23.319 8.61436e-28 -4.45917 0 16102.1 -495630 16102.1 1.85659e-09 -1.46749e-09 6.55923e-10
232 1 Ni 58.71 3.816 5.589 23.319 8.61436e-28 -4.45917 0 -495630 16102.1 16102.1 1.76766e-09 8.15039e-10 -1.40078e-09
233 2 Al 26.982 7.362 3.816 21.546 1.0129e-27 -5.1453 0 1.37752e+06 1.37752e+06 1.37752e+06 -1.00021e-09 -1.42823e-09 -8.338e-11
234 1 Ni 58.71 9.135 5.589 21.546 1.06023e-27 -4.45917 0 16102.1 16102.1 -495630 -1.54531e-09 1.51196e-09 1.77182e-09
235 1 Ni 58.71 9.135 3.816 23.319 1.0129e-27 -4.45917 0 16102.1 -495630 16102.1 1.69539e-09 -1.51196e-09 6.44805e-10
236 1 Ni 58.71 7.362 5.589 23.319 1.06023e-27 -4.45917 0 -495630 16102.1 16102.1 1.52863e-09 1.88995e-09 -1.20067e-09
237 2 Al 26.982 10.908 3.816 21.546 8.61436e-28 -5.1453 0 1.37752e+06 1.37752e+06 1.37752e+06 -8.67152e-10 -1.48972e-09 2.22347e-11
238 1 Ni 58.71 10.908 5.589 23.319 9.08768e-28 -4.45917 0 -495630 16102.1 16102.1 -0 7.72655e-10 -1.31185e-09
239 2 Al 26.982 0.27 7.362 21.546 1.19927e-27 -5.1453 0 1.37752e+06 1.37752e+06 1.37752e+06 5.43638e-09 7.74878e-09 -6.89275e-10
240 1 Ni 58.71 2.043 7.362 23.319 1.00974e-27 -4.45917 0 16102.1 -495630 16102.1 1.33408e-10 6.22571e-10 2.10673e-09
241 2 Al 26.982 3.816 7.362 21.546 1.0129e-27 -5.1453 0 1.37752e+06 1.37752e+06 1.37752e+06 -1.15794e-09 -9.06757e-11 -1.28231e-09
242 1 Ni 58.71 5.589 7.362 23.319 1.06023e-27 -4.45917 0 16102.1 -495630 16102.1 1.51196e-09 -1.28961e-09 1.75654e-09
243 2 Al 26.982 7.362 7.362 21.546 1.21169e-27 -5.1453 0 1.37752e+06 1.37752e+06 1.37752e+06 -1.31827e-09 -1.62765e-09 -1.70373e-09
244 1 Ni 58.71 9.135 7.362 23.319 1.21169e-27 -4.45917 0 16102.1 -495630 16102.1 1.6009e-09 -1.37855e-09 1.95665e-09
245 2 Al 26.982 10.908 7.362 21.546 1.06023e-27 -5.1453 0 1.37752e+06 1.37752e+06 1.37752e+06 1.22291e-10 -1.6676e-09 -1.22291e-09
246 2 Al 26.982 0.27 0.27 25.092 2.19658e-27 -5.1453 0 1.37752e+06 1.37752e+06 1.37752e+06 1.44525e-09 5.33632e-09 5.42526e-09