ITEM: TIMESTEP
20
ITEM: NUMBER OF ATOMS
4000
ITEM: BOX BOUNDS pp pp pp
3.3415182393927684e-01 3.5665848176060713e+01
3.3415182393927684e-01 3.5665848176060713e+01
3.3415182393927684e-01 3.5665848176060713e+01
ITEM: ATOMS id type element mass x y z c_csym c_potEnergy c_kinEnergy c_sigma[1] c_sigma[2] c_sigma[3] c_sigma[4] c_sigma[5] c_sigma[6]
1 2 Al 26.982 0.334152 0.334152 0.334152 2.4997e-29 -5.15854 0 1.12162e+06 1.12162e+06 1.12162e+06 8.44917e-10 3.22403e-10 3.16844e-10
2 1 Ni 58.71 2.10074 2.10074 0.334152 1.46432e-29 -4.45579 0 -186203 -186203 -749213 2.76266e-09 -1.62869e-09 -1.62869e-09
3 1 Ni 58.71 2.10074 0.334152 2.10074 1.46432e-29 -4.45579 0 -186203 -749213 -186203 -1.62313e-09 2.75154e-09 -1.63981e-09
4 1 Ni 58.71 0.334152 2.10074 2.10074 1.46432e-29 -4.45579 0 -749213 -186203 -186203 -1.55643e-09 -1.53419e-09 2.79809e-09
5 2 Al 26.982 3.86732 0.334152 0.334152 1.98201e-29 -5.15854 0 1.12162e+06 1.12162e+06 1.12162e+06 4.70836e-10 7.80993e-10 8.67152e-10
6 1 Ni 58.71 5.63391 2.10074 0.334152 1.14878e-29 -4.45579 0 -186203 -186203 -749213 1.28961e-09 -1.09506e-09 -1.7343e-09
7 1 Ni 58.71 5.63391 0.334152 2.10074 1.14878e-29 -4.45579 0 -186203 -749213 -186203 -1.11729e-09 1.33408e-09 -1.6009e-09
8 1 Ni 58.71 3.86732 2.10074 2.10074 9.46633e-30 -4.45579 0 -749213 -186203 -186203 -1.58769e-09 -1.55504e-09 2.54309e-09
9 2 Al 26.982 7.40049 0.334152 0.334152 1.30261e-28 -5.15854 0 1.12162e+06 1.12162e+06 1.12162e+06 -4.1994e-10 -4.23848e-10 6.6704e-10
10 1 Ni 58.71 9.16708 2.10074 0.334152 2.13436e-28 -4.45579 0 -186203 -186203 -749213 1.11451e-09 1.88995e-09 -1.56199e-09
11 1 Ni 58.71 9.16708 0.334152 2.10074 2.13436e-28 -4.45579 0 -186203 -749213 -186203 1.75654e-09 1.24236e-09 -1.40634e-09
12 1 Ni 58.71 7.40049 2.10074 2.10074 1.19907e-28 -4.45579 0 -749213 -186203 -186203 -1.81768e-09 -1.83228e-09 2.50765e-09
13 2 Al 26.982 10.9337 0.334152 0.334152 6.71518e-29 -5.15854 0 1.12162e+06 1.12162e+06 1.12162e+06 -1.04503e-09 -1.05059e-09 3.77989e-10
14 1 Ni 58.71 10.9337 2.10074 2.10074 5.6798e-29 -4.45579 0 -749213 -186203 -186203 -7.55979e-10 -7.11509e-10 2.69734e-09
15 2 Al 26.982 0.334152 3.86732 0.334152 1.98201e-29 -5.15854 0 1.12162e+06 1.12162e+06 1.12162e+06 5.81992e-09 1.46749e-09 4.89163e-10
16 1 Ni 58.71 2.10074 5.63391 0.334152 1.14878e-29 -4.45579 0 -186203 -186203 -749213 1.28153e-09 -1.7343e-09 -9.44973e-10
17 1 Ni 58.71 2.10074 3.86732 2.10074 9.46633e-30 -4.45579 0 -186203 -749213 -186203 -1.55643e-09 2.53892e-09 -1.58283e-09
18 1 Ni 58.71 0.334152 5.63391 2.10074 1.14878e-29 -4.45579 0 -749213 -186203 -186203 -1.09506e-09 -1.55643e-09 1.38967e-09
19 2 Al 26.982 3.86732 3.86732 0.334152 1.46432e-29 -5.15854 0 1.12162e+06 1.12162e+06 1.12162e+06 1.39627e-09 9.87966e-10 9.42976e-10
20 1 Ni 58.71 5.63391 5.63391 0.334152 8.33234e-30 -4.45579 0 -186203 -186203 -749213 1.64537e-09 -1.02835e-09 -9.67208e-10
21 1 Ni 58.71 5.63391 3.86732 2.10074 6.31089e-30 -4.45579 0 -186203 -749213 -186203 -1.58978e-09 1.26738e-09 -1.56754e-09
22 1 Ni 58.71 3.86732 5.63391 2.10074 6.31089e-30 -4.45579 0 -749213 -186203 -186203 -1.69539e-09 -1.694e-09 1.36604e-09
23 2 Al 26.982 7.40049 3.86732 0.334152 1.25084e-28 -5.15854 0 1.12162e+06 1.12162e+06 1.12162e+06 1.56972e-09 -2.35114e-10 9.4645e-10
24 1 Ni 58.71 9.16708 5.63391 0.334152 2.10281e-28 -4.45579 0 -186203 -186203 -749213 1.47861e-09 2.02335e-09 -8.89387e-10
25 1 Ni 58.71 9.16708 3.86732 2.10074 2.08259e-28 -4.45579 0 -186203 -749213 -186203 -1.5064e-09 1.332e-09 -1.82116e-09
26 1 Ni 58.71 7.40049 5.63391 2.10074 1.16751e-28 -4.45579 0 -749213 -186203 -186203 -1.40426e-09 -1.66552e-09 1.22916e-09
27 2 Al 26.982 10.9337 3.86732 0.334152 6.19749e-29 -5.15854 0 1.12162e+06 1.12162e+06 1.12162e+06 1.68983e-09 -8.89387e-10 6.63218e-10
28 1 Ni 58.71 10.9337 5.63391 2.10074 5.36425e-29 -4.45579 0 -749213 -186203 -186203 -1.51196e-09 -8.89387e-10 1.12285e-09
29 2 Al 26.982 0.334152 7.40049 0.334152 1.30261e-28 -5.15854 0 1.12162e+06 1.12162e+06 1.12162e+06 -4.22459e-10 7.28185e-10 -6.11453e-10
30 1 Ni 58.71 2.10074 7.40049 2.10074 1.19907e-28 -4.45579 0 -186203 -749213 -186203 -1.60645e-09 2.53962e-09 -1.73222e-09
31 2 Al 26.982 3.86732 7.40049 0.334152 1.25084e-28 -5.15854 0 1.12162e+06 1.12162e+06 1.12162e+06 1.54722e-09 9.25257e-10 -3.11285e-10
32 1 Ni 58.71 5.63391 7.40049 2.10074 1.16751e-28 -4.45579 0 -186203 -749213 -186203 -1.42858e-09 1.21179e-09 -1.73986e-09
33 2 Al 26.982 7.40049 7.40049 0.334152 2.35524e-28 -5.15854 0 1.12162e+06 1.12162e+06 1.12162e+06 1.83436e-09 -1.11694e-10 -8.89387e-11
34 1 Ni 58.71 9.16708 7.40049 2.10074 3.187e-28 -4.45579 0 -186203 -749213 -186203 -1.85312e-09 1.35076e-09 -1.73708e-09
35 2 Al 26.982 10.9337 7.40049 0.334152 1.72415e-28 -5.15854 0 1.12162e+06 1.12162e+06 1.12162e+06 1.41746e-09 -1.04503e-09 -4.55811e-10
36 2 Al 26.982 0.334152 0.334152 3.86732 1.98201e-29 -5.15854 0 1.12162e+06 1.12162e+06 1.12162e+06 6.55923e-10 6.84828e-09 6.79825e-09
37 1 Ni 58.71 2.10074 2.10074 3.86732 9.46633e-30 -4.45579 0 -186203 -186203 -749213 2.57158e-09 -1.53419e-09 -1.46749e-09
38 1 Ni 58.71 2.10074 0.334152 5.63391 1.14878e-29 -4.45579 0 -186203 -749213 -186203 -1.82324e-09 1.2593e-09 -9.50532e-10
39 1 Ni 58.71 0.334152 2.10074 5.63391 1.14878e-29 -4.45579 0 -749213 -186203 -186203 -1.80101e-09 -9.50532e-10 1.22291e-09
40 2 Al 26.982 3.86732 0.334152 3.86732 1.46432e-29 -5.15854 0 1.12162e+06 1.12162e+06 1.12162e+06 9.17614e-10 1.69704e-09 7.07062e-09
41 1 Ni 58.71 5.63391 2.10074 3.86732 6.31089e-30 -4.45579 0 -186203 -186203 -749213 1.12424e-09 -1.56754e-09 -1.64537e-09
42 1 Ni 58.71 5.63391 0.334152 5.63391 8.33234e-30 -4.45579 0 -186203 -749213 -186203 -1.00612e-09 1.62313e-09 -1.01168e-09
43 1 Ni 58.71 3.86732 2.10074 5.63391 6.31089e-30 -4.45579 0 -749213 -186203 -186203 -1.74959e-09 -1.64537e-09 1.09245e-09
44 2 Al 26.982 7.40049 0.334152 3.86732 1.25084e-28 -5.15854 0 1.12162e+06 1.12162e+06 1.12162e+06 -5.81923e-12 1.40078e-09 6.87051e-09
45 1 Ni 58.71 9.16708 2.10074 3.86732 2.08259e-28 -4.45579 0 -186203 -186203 -749213 1.38619e-09 -1.47305e-09 -1.80101e-09
46 1 Ni 58.71 9.16708 0.334152 5.63391 2.10281e-28 -4.45579 0 -186203 -749213 -186203 1.87883e-09 1.44525e-09 -7.22627e-10
47 1 Ni 58.71 7.40049 2.10074 5.63391 1.16751e-28 -4.45579 0 -749213 -186203 -186203 -1.74334e-09 -1.26529e-09 9.54354e-10
48 2 Al 26.982 10.9337 0.334152 3.86732 6.19749e-29 -5.15854 0 1.12162e+06 1.12162e+06 1.12162e+06 -7.61537e-10 1.62313e-09 6.68708e-09
49 1 Ni 58.71 10.9337 2.10074 5.63391 5.36425e-29 -4.45579 0 -749213 -186203 -186203 -8.89387e-10 -1.63425e-09 1.11173e-09
50 2 Al 26.982 0.334152 3.86732 3.86732 1.46432e-29 -5.15854 0 1.12162e+06 1.12162e+06 1.12162e+06 6.20903e-09 6.28685e-09 2.09006e-09
51 1 Ni 58.71 2.10074 5.63391 3.86732 6.31089e-30 -4.45579 0 -186203 -186203 -749213 1.33339e-09 -1.48972e-09 -1.68428e-09
52 1 Ni 58.71 2.10074 3.86732 5.63391 6.31089e-30 -4.45579 0 -186203 -749213 -186203 -1.50084e-09 1.11173e-09 -1.74542e-09
53 1 Ni 58.71 0.334152 5.63391 5.63391 8.33234e-30 -4.45579 0 -749213 -186203 -186203 -9.95001e-10 -9.44973e-10 1.61375e-09
54 2 Al 26.982 3.86732 3.86732 3.86732 9.46633e-30 -5.15854 0 1.12162e+06 1.12162e+06 1.12162e+06 1.48868e-09 1.5665e-09 1.57875e-09
55 1 Ni 58.71 5.63391 5.63391 3.86732 3.15544e-30 -4.45579 0 -186203 -186203 -749213 1.43622e-09 -1.72319e-09 -1.61201e-09
56 1 Ni 58.71 5.63391 3.86732 5.63391 3.15544e-30 -4.45579 0 -186203 -749213 -186203 -1.70095e-09 1.39175e-09 -1.62313e-09
57 1 Ni 58.71 3.86732 5.63391 5.63391 3.15544e-30 -4.45579 0 -749213 -186203 -186203 -1.74542e-09 -1.65648e-09 1.36761e-09
58 2 Al 26.982 7.40049 3.86732 3.86732 1.19907e-28 -5.15854 0 1.12162e+06 1.12162e+06 1.12162e+06 1.32209e-09 1.29639e-09 1.72301e-09
59 1 Ni 58.71 9.16708 5.63391 3.86732 2.05104e-28 -4.45579 0 -186203 -186203 -749213 1.30073e-09 -1.38967e-09 -1.80101e-09
60 1 Ni 58.71 9.16708 3.86732 5.63391 2.05104e-28 -4.45579 0 -186203 -749213 -186203 -1.37855e-09 1.42302e-09 -1.85659e-09
61 1 Ni 58.71 7.40049 5.63391 5.63391 1.13596e-28 -4.45579 0 -749213 -186203 -186203 -1.44525e-09 -1.45429e-09 1.2725e-09
62 2 Al 26.982 10.9337 3.86732 3.86732 5.6798e-29 -5.15854 0 1.12162e+06 1.12162e+06 1.12162e+06 1.35631e-09 1.40078e-09 1.55643e-09
63 1 Ni 58.71 10.9337 5.63391 5.63391 5.04871e-29 -4.45579 0 -749213 -186203 -186203 -1.74542e-09 -1.71207e-09 1.22291e-09
64 2 Al 26.982 0.334152 7.40049 3.86732 1.25084e-28 -5.15854 0 1.12162e+06 1.12162e+06 1.12162e+06 6.6704e-11 6.64816e-09 1.80101e-09
65 1 Ni 58.71 2.10074 7.40049 5.63391 1.16751e-28 -4.45579 0 -186203 -749213 -186203 -1.70095e-09 9.43584e-10 -1.53419e-09
66 2 Al 26.982 3.86732 7.40049 3.86732 1.19907e-28 -5.15854 0 1.12162e+06 1.12162e+06 1.12162e+06 1.37716e-09 1.87162e-09 1.37916e-09
67 1 Ni 58.71 5.63391 7.40049 5.63391 1.13596e-28 -4.45579 0 -186203 -749213 -186203 -1.45637e-09 1.38411e-09 -1.31185e-09
68 2 Al 26.982 7.40049 7.40049 3.86732 2.30347e-28 -5.15854 0 1.12162e+06 1.12162e+06 1.12162e+06 1.95396e-09 1.72032e-09 1.65918e-09
69 1 Ni 58.71 9.16708 7.40049 5.63391 3.15544e-28 -4.45579 0 -186203 -749213 -186203 -1.84548e-09 1.64537e-09 -1.40634e-09
70 2 Al 26.982 10.9337 7.40049 3.86732 1.67239e-28 -5.15854 0 1.12162e+06 1.12162e+06 1.12162e+06 1.51196e-09 1.37855e-09 1.75654e-09
71 2 Al 26.982 0.334152 0.334152 7.40049 1.30261e-28 -5.15854 0 1.12162e+06 1.12162e+06 1.12162e+06 8.67152e-10 4.44693e-11 1.00056e-10
72 1 Ni 58.71 2.10074 2.10074 7.40049 1.19907e-28 -4.45579 0 -186203 -186203 -749213 2.48472e-09 -1.70443e-09 -1.69331e-09
73 2 Al 26.982 3.86732 0.334152 7.40049 1.25084e-28 -5.15854 0 1.12162e+06 1.12162e+06 1.12162e+06 5.63857e-10 1.38602e-09 -0
74 1 Ni 58.71 5.63391 2.10074 7.40049 1.16751e-28 -4.45579 0 -186203 -186203 -749213 1.16732e-09 -1.38411e-09 -1.51196e-09
75 2 Al 26.982 7.40049 0.334152 7.40049 2.35524e-28 -5.15854 0 1.12162e+06 1.12162e+06 1.12162e+06 -6.72251e-11 2.00112e-09 -4.44693e-11
76 1 Ni 58.71 9.16708 2.10074 7.40049 3.187e-28 -4.45579 0 -186203 -186203 -749213 1.43205e-09 -1.61896e-09 -1.67663e-09
77 2 Al 26.982 10.9337 0.334152 7.40049 1.72415e-28 -5.15854 0 1.12162e+06 1.12162e+06 1.12162e+06 -9.89443e-10 1.42302e-09 -6.6704e-11
78 2 Al 26.982 0.334152 3.86732 7.40049 1.25084e-28 -5.15854 0 1.12162e+06 1.12162e+06 1.12162e+06 6.44805e-09 4.44693e-11 1.36561e-09
79 1 Ni 58.71 2.10074 5.63391 7.40049 1.16751e-28 -4.45579 0 -186203 -186203 -749213 1.1562e-09 -1.58978e-09 -1.48416e-09
80 2 Al 26.982 3.86732 3.86732 7.40049 1.19907e-28 -5.15854 0 1.12162e+06 1.12162e+06 1.12162e+06 1.56911e-09 1.42198e-09 1.54774e-09
81 1 Ni 58.71 5.63391 5.63391 7.40049 1.13596e-28 -4.45579 0 -186203 -186203 -749213 1.32296e-09 -1.44525e-09 -1.45637e-09
82 2 Al 26.982 7.40049 3.86732 7.40049 2.30347e-28 -5.15854 0 1.12162e+06 1.12162e+06 1.12162e+06 1.66439e-09 2.00954e-09 1.73934e-09
83 1 Ni 58.71 9.16708 5.63391 7.40049 3.15544e-28 -4.45579 0 -186203 -186203 -749213 1.57866e-09 -1.81213e-09 -1.5064e-09
84 2 Al 26.982 10.9337 3.86732 7.40049 1.67239e-28 -5.15854 0 1.12162e+06 1.12162e+06 1.12162e+06 1.40078e-09 1.28961e-09 1.56754e-09
85 2 Al 26.982 0.334152 7.40049 7.40049 2.35524e-28 -5.15854 0 1.12162e+06 1.12162e+06 1.12162e+06 3.55755e-10 -8.89387e-11 2.0845e-09
86 2 Al 26.982 3.86732 7.40049 7.40049 2.30347e-28 -5.15854 0 1.12162e+06 1.12162e+06 1.12162e+06 1.46844e-09 1.57093e-09 2.04559e-09
87 2 Al 26.982 7.40049 7.40049 7.40049 3.40788e-28 -5.15854 0 1.12162e+06 1.12162e+06 1.12162e+06 2.19741e-09 2.03829e-09 1.95665e-09
88 2 Al 26.982 10.9337 7.40049 7.40049 2.77679e-28 -5.15854 0 1.12162e+06 1.12162e+06 1.12162e+06 1.76766e-09 1.31185e-09 1.77443e-09
89 1 Ni 58.71 2.10074 0.334152 9.16708 2.13436e-28 -4.45579 0 -186203 -749213 -186203 -1.75654e-09 1.51196e-09 7.25962e-09
90 1 Ni 58.71 0.334152 2.10074 9.16708 2.13436e-28 -4.45579 0 -749213 -186203 -186203 -1.86771e-09 7.17624e-09 1.68983e-09
91 1 Ni 58.71 5.63391 0.334152 9.16708 2.10281e-28 -4.45579 0 -186203 -749213 -186203 -9.94306e-10 1.42979e-09 7.45973e-09
92 1 Ni 58.71 3.86732 2.10074 9.16708 2.08259e-28 -4.45579 0 -749213 -186203 -186203 -1.55573e-09 -1.45081e-09 1.77877e-09
93 1 Ni 58.71 9.16708 0.334152 9.16708 4.12229e-28 -4.45579 0 -186203 -749213 -186203 2.2457e-09 8.89387e-10 7.60981e-09
94 1 Ni 58.71 7.40049 2.10074 9.16708 3.187e-28 -4.45579 0 -749213 -186203 -186203 -1.81907e-09 -1.75098e-09 1.46749e-09
95 1 Ni 58.71 10.9337 2.10074 9.16708 2.55591e-28 -4.45579 0 -749213 -186203 -186203 -6.44805e-10 -9.22739e-10 1.51196e-09
96 1 Ni 58.71 2.10074 3.86732 9.16708 2.08259e-28 -4.45579 0 -186203 -749213 -186203 -1.48972e-09 1.57866e-09 -1.37855e-09
97 1 Ni 58.71 0.334152 5.63391 9.16708 2.10281e-28 -4.45579 0 -749213 -186203 -186203 -9.56091e-10 7.40414e-09 1.32557e-09
98 1 Ni 58.71 5.63391 3.86732 9.16708 2.05104e-28 -4.45579 0 -186203 -749213 -186203 -1.67872e-09 1.24479e-09 -1.55643e-09
99 1 Ni 58.71 3.86732 5.63391 9.16708 2.05104e-28 -4.45579 0 -749213 -186203 -186203 -1.63425e-09 -1.54531e-09 1.36708e-09
100 1 Ni 58.71 9.16708 3.86732 9.16708 4.07052e-28 -4.45579 0 -186203 -749213 -186203 -1.80101e-09 7.18979e-10 -1.75098e-09
101 1 Ni 58.71 7.40049 5.63391 9.16708 3.15544e-28 -4.45579 0 -749213 -186203 -186203 -1.59881e-09 -1.83436e-09 1.53602e-09
102 1 Ni 58.71 10.9337 5.63391 9.16708 2.52435e-28 -4.45579 0 -749213 -186203 -186203 -1.77877e-09 -8.83828e-10 1.58422e-09
103 1 Ni 58.71 2.10074 7.40049 9.16708 3.187e-28 -4.45579 0 -186203 -749213 -186203 -1.54739e-09 1.37855e-09 -1.70095e-09
104 1 Ni 58.71 5.63391 7.40049 9.16708 3.15544e-28 -4.45579 0 -186203 -749213 -186203 -1.51196e-09 1.39488e-09 -1.74542e-09
105 1 Ni 58.71 9.16708 7.40049 9.16708 5.17493e-28 -4.45579 0 -186203 -749213 -186203 -1.56407e-09 6.69038e-10 -1.67872e-09
106 2 Al 26.982 0.334152 0.334152 10.9337 6.71518e-29 -5.15854 0 1.12162e+06 1.12162e+06 1.12162e+06 8.00448e-10 -8.00448e-10 -6.22571e-10
107 1 Ni 58.71 2.10074 2.10074 10.9337 5.6798e-29 -4.45579 0 -186203 -186203 -749213 2.78628e-09 -4.39135e-10 -4.61369e-10
108 1 Ni 58.71 2.10074 0.334152 12.7002 1.14878e-29 -4.45579 0 -186203 -749213 -186203 -1.70095e-09 9.33856e-10 6.38691e-09
109 1 Ni 58.71 0.334152 2.10074 12.7002 1.14878e-29 -4.45579 0 -749213 -186203 -186203 -1.77877e-09 6.1868e-09 7.33744e-10
110 2 Al 26.982 3.86732 0.334152 10.9337 6.19749e-29 -5.15854 0 1.12162e+06 1.12162e+06 1.12162e+06 5.5439e-10 1.56476e-09 -6.6704e-10
111 1 Ni 58.71 5.63391 2.10074 10.9337 5.36425e-29 -4.45579 0 -186203 -186203 -749213 1.12285e-09 -1.80657e-09 -6.22571e-10
112 1 Ni 58.71 5.63391 0.334152 12.7002 8.33234e-30 -4.45579 0 -186203 -749213 -186203 -8.89387e-10 5.78101e-10 6.23682e-09
113 1 Ni 58.71 3.86732 2.10074 12.7002 6.31089e-30 -4.45579 0 -749213 -186203 -186203 -1.51543e-09 -7.13594e-10 6.6704e-10
114 2 Al 26.982 7.40049 0.334152 10.9337 1.72415e-28 -5.15854 0 1.12162e+06 1.12162e+06 1.12162e+06 -3.40989e-10 1.30933e-09 -7.11509e-10
115 1 Ni 58.71 9.16708 2.10074 10.9337 2.55591e-28 -4.45579 0 -186203 -186203 -749213 1.332e-09 -1.0895e-09 -3.22403e-10
116 1 Ni 58.71 9.16708 0.334152 12.7002 2.10281e-28 -4.45579 0 -186203 -749213 -186203 2.03447e-09 -8.44917e-10 6.51476e-09
117 1 Ni 58.71 7.40049 2.10074 12.7002 1.16751e-28 -4.45579 0 -749213 -186203 -186203 -1.69539e-09 2.39023e-10 7.55979e-10
118 2 Al 26.982 10.9337 0.334152 10.9337 1.09307e-28 -5.15854 0 1.12162e+06 1.12162e+06 1.12162e+06 -9.78325e-10 1.28961e-09 -8.22683e-10
119 1 Ni 58.71 10.9337 2.10074 12.7002 5.36425e-29 -4.45579 0 -749213 -186203 -186203 -1.28961e-09 -6.6704e-11 8.78269e-10
120 2 Al 26.982 0.334152 3.86732 10.9337 6.19749e-29 -5.15854 0 1.12162e+06 1.12162e+06 1.12162e+06 5.89497e-09 -2.66816e-10 1.40078e-09
121 1 Ni 58.71 2.10074 5.63391 10.9337 5.36425e-29 -4.45579 0 -186203 -186203 -749213 1.24514e-09 -5.11397e-10 -1.73986e-09
122 1 Ni 58.71 2.10074 3.86732 12.7002 6.31089e-30 -4.45579 0 -186203 -749213 -186203 -1.31185e-09 7.55979e-10 -7.05951e-10
123 1 Ni 58.71 0.334152 5.63391 12.7002 8.33234e-30 -4.45579 0 -749213 -186203 -186203 -8.78269e-10 6.4147e-09 6.27869e-10
124 2 Al 26.982 3.86732 3.86732 10.9337 5.6798e-29 -5.15854 0 1.12162e+06 1.12162e+06 1.12162e+06 1.65553e-09 1.3974e-09 1.35501e-09
125 1 Ni 58.71 5.63391 5.63391 10.9337 5.04871e-29 -4.45579 0 -186203 -186203 -749213 1.57866e-09 -1.87883e-09 -1.79545e-09
126 1 Ni 58.71 5.63391 3.86732 12.7002 3.15544e-30 -4.45579 0 -186203 -749213 -186203 -1.65092e-09 7.33744e-10 -7.78213e-10
127 1 Ni 58.71 3.86732 5.63391 12.7002 3.15544e-30 -4.45579 0 -749213 -186203 -186203 -1.75098e-09 -7.78213e-10 6.83369e-10
128 2 Al 26.982 7.40049 3.86732 10.9337 1.67239e-28 -5.15854 0 1.12162e+06 1.12162e+06 1.12162e+06 1.59733e-09 1.31106e-09 1.27415e-09
129 1 Ni 58.71 9.16708 5.63391 10.9337 2.52435e-28 -4.45579 0 -186203 -186203 -749213 1.46749e-09 -1.05615e-09 -1.71207e-09
130 1 Ni 58.71 9.16708 3.86732 12.7002 2.05104e-28 -4.45579 0 -186203 -749213 -186203 -1.61757e-09 -9.14401e-10 -8.47002e-10
131 1 Ni 58.71 7.40049 5.63391 12.7002 1.13596e-28 -4.45579 0 -749213 -186203 -186203 -1.69539e-09 1.73013e-10 2.73243e-10
132 2 Al 26.982 10.9337 3.86732 10.9337 1.0413e-28 -5.15854 0 1.12162e+06 1.12162e+06 1.12162e+06 1.68983e-09 1.0895e-09 1.68931e-09
133 1 Ni 58.71 10.9337 5.63391 12.7002 5.04871e-29 -4.45579 0 -749213 -186203 -186203 -2.00112e-09 -1.33408e-10 4.78045e-10
134 2 Al 26.982 0.334152 7.40049 10.9337 1.72415e-28 -5.15854 0 1.12162e+06 1.12162e+06 1.12162e+06 -3.77989e-10 -4.89163e-10 1.14509e-09
135 1 Ni 58.71 2.10074 7.40049 12.7002 1.16751e-28 -4.45579 0 -186203 -749213 -186203 -1.6676e-09 7.78213e-10 1.27154e-10
136 2 Al 26.982 3.86732 7.40049 10.9337 1.67239e-28 -5.15854 0 1.12162e+06 1.12162e+06 1.12162e+06 1.7046e-09 1.2408e-09 1.37855e-09
137 1 Ni 58.71 5.63391 7.40049 12.7002 1.13596e-28 -4.45579 0 -186203 -749213 -186203 -1.53419e-09 3.75905e-10 1.93858e-10
138 2 Al 26.982 7.40049 7.40049 10.9337 2.77679e-28 -5.15854 0 1.12162e+06 1.12162e+06 1.12162e+06 2.08485e-09 1.28883e-09 1.42302e-09
139 1 Ni 58.71 9.16708 7.40049 12.7002 3.15544e-28 -4.45579 0 -186203 -749213 -186203 -1.87536e-09 -6.58007e-10 3.49501e-10
140 2 Al 26.982 10.9337 7.40049 10.9337 2.1457e-28 -5.15854 0 1.12162e+06 1.12162e+06 1.12162e+06 1.43414e-09 8.67152e-10 1.37855e-09
141 2 Al 26.982 0.334152 0.334152 14.4668 1.66647e-29 -5.15854 0 1.12162e+06 1.12162e+06 1.12162e+06 6.00336e-10 -1.64936e-10 -8.91124e-11
142 1 Ni 58.71 2.10074 2.10074 14.4668 6.31089e-30 -4.45579 0 -186203 -186203 -749213 2.52919e-09 -1.91079e-10 -1.15342e-10
143 1 Ni 58.71 2.10074 0.334152 16.2334 8.19281e-28 -4.45579 0 -186203 -749213 -186203 -1.51196e-09 -6.94833e-11 -9.56091e-10
144 1 Ni 58.71 0.334152 2.10074 16.2334 8.19281e-28 -4.45579 0 -749213 -186203 -186203 -1.44525e-09 -8.00448e-10 -2.64037e-11
145 2 Al 26.982 3.86732 0.334152 14.4668 1.14878e-29 -5.15854 0 1.12162e+06 1.12162e+06 1.12162e+06 2.21652e-10 6.792e-11 2.27124e-10
146 1 Ni 58.71 5.63391 2.10074 14.4668 3.15544e-30 -4.45579 0 -186203 -186203 -749213 1.5731e-09 -2.22347e-11 -3.07811e-10
147 1 Ni 58.71 5.63391 0.334152 16.2334 8.16126e-28 -4.45579 0 -186203 -749213 -186203 -5.55867e-10 1.68428e-09 -7.55979e-10
148 1 Ni 58.71 3.86732 2.10074 16.2334 8.14104e-28 -4.45579 0 -749213 -186203 -186203 -1.63981e-09 -1.97055e-09 -1.75098e-10
149 2 Al 26.982 7.40049 0.334152 14.4668 1.21928e-28 -5.15854 0 1.12162e+06 1.12162e+06 1.12162e+06 -3.00602e-10 -2.10361e-10 1.49389e-10
150 1 Ni 58.71 9.16708 2.10074 14.4668 2.05104e-28 -4.45579 0 -186203 -186203 -749213 1.30629e-09 -0 -2.46666e-10
151 1 Ni 58.71 9.16708 0.334152 16.2334 1.01807e-27 -4.45579 0 -186203 -749213 -186203 1.95665e-09 1.01376e-09 -9.56091e-10
152 1 Ni 58.71 7.40049 2.10074 16.2334 9.24545e-28 -4.45579 0 -749213 -186203 -186203 -1.50084e-09 -7.22627e-10 -2.66816e-10
153 2 Al 26.982 10.9337 0.334152 14.4668 5.88194e-29 -5.15854 0 1.12162e+06 1.12162e+06 1.12162e+06 -1.13397e-09 -2.83492e-10 1.55643e-10
154 1 Ni 58.71 10.9337 2.10074 16.2334 8.61436e-28 -4.45579 0 -749213 -186203 -186203 -1.0895e-09 -1.6676e-09 -4.169e-11
155 2 Al 26.982 0.334152 3.86732 14.4668 1.14878e-29 -5.15854 0 1.12162e+06 1.12162e+06 1.12162e+06 5.75322e-09 1.06726e-09 -5.11397e-10
156 1 Ni 58.71 2.10074 5.63391 14.4668 3.15544e-30 -4.45579 0 -186203 -186203 -749213 1.37855e-09 -1.18816e-10 -1.11173e-10
157 1 Ni 58.71 2.10074 3.86732 16.2334 8.14104e-28 -4.45579 0 -186203 -749213 -186203 -1.55643e-09 -1.17427e-10 -1.96499e-09
158 1 Ni 58.71 0.334152 5.63391 16.2334 8.16126e-28 -4.45579 0 -749213 -186203 -186203 -6.6704e-10 -7.33744e-10 1.72319e-09
159 2 Al 26.982 3.86732 3.86732 14.4668 6.31089e-30 -5.15854 0 1.12162e+06 1.12162e+06 1.12162e+06 1.79119e-09 1.1569e-10 1.00751e-11
160 1 Ni 58.71 5.63391 5.63391 14.4668 0 -4.45579 0 -186203 -186203 -749213 1.72319e-09 -6.6704e-11 -6.6704e-11
161 1 Ni 58.71 5.63391 3.86732 16.2334 8.10949e-28 -4.45579 0 -186203 -749213 -186203 -2.13453e-09 1.51196e-09 -2.09006e-09
162 1 Ni 58.71 3.86732 5.63391 16.2334 8.10949e-28 -4.45579 0 -749213 -186203 -186203 -2.01224e-09 -2.00112e-09 1.6676e-09
163 2 Al 26.982 7.40049 3.86732 14.4668 1.16751e-28 -5.15854 0 1.12162e+06 1.12162e+06 1.12162e+06 1.78555e-09 -1.09436e-11 1.70668e-10
164 1 Ni 58.71 9.16708 5.63391 14.4668 2.01948e-28 -4.45579 0 -186203 -186203 -749213 1.67872e-09 3.3352e-11 3.89107e-11
165 1 Ni 58.71 9.16708 3.86732 16.2334 1.0129e-27 -4.45579 0 -186203 -749213 -186203 -1.59534e-09 1.13744e-09 -1.91218e-09
166 1 Ni 58.71 7.40049 5.63391 16.2334 9.2139e-28 -4.45579 0 -749213 -186203 -186203 -1.63425e-09 -6.55923e-10 1.74542e-09
167 2 Al 26.982 10.9337 3.86732 14.4668 5.36425e-29 -5.15854 0 1.12162e+06 1.12162e+06 1.12162e+06 2.13453e-09 -1.55643e-10 1.43744e-10
168 1 Ni 58.71 10.9337 5.63391 16.2334 8.58281e-28 -4.45579 0 -749213 -186203 -186203 -1.99e-09 -1.61201e-09 1.77877e-09
169 2 Al 26.982 0.334152 7.40049 14.4668 1.21928e-28 -5.15854 0 1.12162e+06 1.12162e+06 1.12162e+06 -3.55755e-10 3.55755e-10 -3.89107e-10
170 1 Ni 58.71 2.10074 7.40049 16.2334 9.24545e-28 -4.45579 0 -186203 -749213 -186203 -1.36187e-09 -2.10534e-10 -5.17651e-10
171 2 Al 26.982 3.86732 7.40049 14.4668 1.16751e-28 -5.15854 0 1.12162e+06 1.12162e+06 1.12162e+06 1.69913e-09 2.54396e-10 4.44693e-11
172 1 Ni 58.71 5.63391 7.40049 16.2334 9.2139e-28 -4.45579 0 -186203 -749213 -186203 -1.4119e-09 1.62313e-09 -6.73293e-10
173 2 Al 26.982 7.40049 7.40049 14.4668 2.27192e-28 -5.15854 0 1.12162e+06 1.12162e+06 1.12162e+06 2.06331e-09 -1.71884e-10 -4.44693e-11
174 1 Ni 58.71 9.16708 7.40049 16.2334 1.12334e-27 -4.45579 0 -186203 -749213 -186203 -1.85173e-09 9.3872e-10 -8.62288e-10
175 2 Al 26.982 10.9337 7.40049 14.4668 1.64083e-28 -5.15854 0 1.12162e+06 1.12162e+06 1.12162e+06 1.65092e-09 -4.44693e-11 -3.66872e-10
176 2 Al 26.982 0.334152 0.334152 18 1.8342e-27 -5.15854 0 1.12162e+06 1.12162e+06 1.12162e+06 6.61481e-10 7.91554e-09 7.96001e-09
177 1 Ni 58.71 2.10074 2.10074 18 1.82385e-27 -4.45579 0 -186203 -186203 -749213 2.52572e-09 -7.11509e-10 -7.89331e-10
178 1 Ni 58.71 2.10074 0.334152 19.7666 2.13436e-28 -4.45579 0 -186203 -749213 -186203 -1.6676e-09 7.55979e-10 -7.72655e-10
179 1 Ni 58.71 0.334152 2.10074 19.7666 2.13436e-28 -4.45579 0 -749213 -186203 -186203 -1.7343e-09 -7.11509e-10 8.44917e-10
180 2 Al 26.982 3.86732 0.334152 18 1.82902e-27 -5.15854 0 1.12162e+06 1.12162e+06 1.12162e+06 5.93561e-10 2.12298e-09 7.7599e-09
181 1 Ni 58.71 5.63391 2.10074 18 1.82069e-27 -4.45579 0 -186203 -186203 -749213 1.37577e-09 -2.78489e-09 -7.55979e-10
182 1 Ni 58.71 5.63391 0.334152 19.7666 2.10281e-28 -4.45579 0 -186203 -749213 -186203 -1.03391e-09 6.22571e-10 -7.11509e-10
183 1 Ni 58.71 3.86732 2.10074 19.7666 2.08259e-28 -4.45579 0 -749213 -186203 -186203 -1.39939e-09 -8.9703e-10 8.89387e-10
184 2 Al 26.982 7.40049 0.334152 18 1.93946e-27 -5.15854 0 1.12162e+06 1.12162e+06 1.12162e+06 -2.66642e-11 7.39389e-10 7.47085e-09
185 1 Ni 58.71 9.16708 2.10074 18 2.02264e-27 -4.45579 0 -186203 -186203 -749213 1.42093e-09 1.03391e-09 -7.11509e-10
186 1 Ni 58.71 9.16708 0.334152 19.7666 4.12229e-28 -4.45579 0 -186203 -749213 -186203 1.85659e-09 2.00112e-10 -9.06063e-10
187 1 Ni 58.71 7.40049 2.10074 19.7666 3.187e-28 -4.45579 0 -749213 -186203 -186203 -1.6676e-09 -9.88053e-10 8.67152e-10
188 2 Al 26.982 10.9337 0.334152 18 1.87635e-27 -5.15854 0 1.12162e+06 1.12162e+06 1.12162e+06 -7.94889e-10 6.22571e-10 7.70987e-09
189 1 Ni 58.71 10.9337 2.10074 19.7666 2.55591e-28 -4.45579 0 -749213 -186203 -186203 -7.78213e-10 2.44581e-10 8.89387e-10
190 2 Al 26.982 0.334152 3.86732 18 1.82902e-27 -5.15854 0 1.12162e+06 1.12162e+06 1.12162e+06 6.04227e-09 6.79825e-09 2.86827e-09
191 1 Ni 58.71 2.10074 5.63391 18 1.82069e-27 -4.45579 0 -186203 -186203 -749213 1.25348e-09 -6.22571e-10 -2.71819e-09
192 1 Ni 58.71 2.10074 3.86732 19.7666 2.08259e-28 -4.45579 0 -186203 -749213 -186203 -1.28961e-09 8.11565e-10 -9.61649e-10
193 1 Ni 58.71 0.334152 5.63391 19.7666 2.10281e-28 -4.45579 0 -749213 -186203 -186203 -1.12841e-09 -7.11509e-10 5.6073e-10
194 2 Al 26.982 3.86732 3.86732 18 1.82385e-27 -5.15854 0 1.12162e+06 1.12162e+06 1.12162e+06 2.09492e-09 2.50244e-09 2.51564e-09
195 1 Ni 58.71 5.63391 5.63391 18 1.81754e-27 -4.45579 0 -186203 -186203 -749213 1.85868e-09 -2.7571e-09 -2.7571e-09
196 1 Ni 58.71 5.63391 3.86732 19.7666 2.05104e-28 -4.45579 0 -186203 -749213 -186203 -1.6676e-09 6.17012e-10 -1.14509e-09
197 1 Ni 58.71 3.86732 5.63391 19.7666 2.05104e-28 -4.45579 0 -749213 -186203 -186203 -1.62313e-09 -1.06935e-09 6.65129e-10
198 2 Al 26.982 7.40049 3.86732 18 1.93429e-27 -5.15854 0 1.12162e+06 1.12162e+06 1.12162e+06 1.78494e-09 7.57716e-10 2.39387e-09
199 1 Ni 58.71 9.16708 5.63391 18 2.01948e-27 -4.45579 0 -186203 -186203 -749213 1.40078e-09 1.04503e-09 -2.8516e-09
200 1 Ni 58.71 9.16708 3.86732 19.7666 4.07052e-28 -4.45579 0 -186203 -749213 -186203 -1.49528e-09 2.66816e-10 -9.39415e-10
201 1 Ni 58.71 7.40049 5.63391 19.7666 3.15544e-28 -4.45579 0 -749213 -186203 -186203 -1.6676e-09 -9.38025e-10 7.90286e-10
202 2 Al 26.982 10.9337 3.86732 18 1.87118e-27 -5.15854 0 1.12162e+06 1.12162e+06 1.12162e+06 1.6676e-09 6.00336e-10 2.33464e-09
203 1 Ni 58.71 10.9337 5.63391 19.7666 2.52435e-28 -4.45579 0 -749213 -186203 -186203 -1.77877e-09 1.00056e-10 9.11621e-10
204 2 Al 26.982 0.334152 7.40049 18 1.93946e-27 -5.15854 0 1.12162e+06 1.12162e+06 1.12162e+06 -6.6704e-11 7.3152e-09 8.00448e-10
205 1 Ni 58.71 2.10074 7.40049 19.7666 3.187e-28 -4.45579 0 -186203 -749213 -186203 -1.53419e-09 9.56091e-10 -1.01168e-09
206 2 Al 26.982 3.86732 7.40049 18 1.93429e-27 -5.15854 0 1.12162e+06 1.12162e+06 1.12162e+06 1.80926e-09 2.42462e-09 7.9515e-10
207 1 Ni 58.71 5.63391 7.40049 19.7666 3.15544e-28 -4.45579 0 -186203 -749213 -186203 -1.7343e-09 6.34643e-10 -9.56091e-10
208 2 Al 26.982 7.40049 7.40049 18 2.04473e-27 -5.15854 0 1.12162e+06 1.12162e+06 1.12162e+06 1.8123e-09 8.66891e-10 7.0543e-10
209 1 Ni 58.71 9.16708 7.40049 19.7666 5.17493e-28 -4.45579 0 -186203 -749213 -186203 -1.91982e-09 2.00112e-10 -7.83772e-10
210 2 Al 26.982 10.9337 7.40049 18 1.98162e-27 -5.15854 0 1.12162e+06 1.12162e+06 1.12162e+06 1.81768e-09 6.00336e-10 8.78269e-10
211 2 Al 26.982 0.334152 0.334152 21.5332 8.24458e-28 -5.15854 0 1.12162e+06 1.12162e+06 1.12162e+06 1.61201e-10 6.71487e-09 6.80381e-09
212 1 Ni 58.71 2.10074 2.10074 21.5332 8.14104e-28 -4.45579 0 -186203 -186203 -749213 2.37147e-09 -6.22571e-10 -6.83716e-10
213 1 Ni 58.71 2.10074 0.334152 23.2998 1.82902e-27 -4.45579 0 -186203 -749213 -186203 -1.46749e-09 -6.0242e-10 -8.89387e-11
214 1 Ni 58.71 0.334152 2.10074 23.2998 1.82902e-27 -4.45579 0 -749213 -186203 -186203 -1.67872e-09 -0 -5.66984e-10
215 2 Al 26.982 3.86732 0.334152 21.5332 8.19281e-28 -5.15854 0 1.12162e+06 1.12162e+06 1.12162e+06 6.71122e-10 6.16143e-10 6.64816e-09
216 1 Ni 58.71 5.63391 2.10074 21.5332 8.10949e-28 -4.45579 0 -186203 -186203 -749213 1.1291e-09 -7.44861e-10 -7.11509e-10
217 1 Ni 58.71 5.63391 0.334152 23.2998 1.82587e-27 -4.45579 0 -186203 -749213 -186203 -1.11173e-09 5.03754e-11 -1.77877e-10
218 1 Ni 58.71 3.86732 2.10074 23.2998 1.82385e-27 -4.45579 0 -749213 -186203 -186203 -1.80657e-09 -3.54365e-11 -6.46195e-10
219 2 Al 26.982 7.40049 0.334152 21.5332 9.29722e-28 -5.15854 0 1.12162e+06 1.12162e+06 1.12162e+06 -3.43074e-11 7.42082e-10 7.07062e-09
220 1 Ni 58.71 9.16708 2.10074 21.5332 1.0129e-27 -4.45579 0 -186203 -186203 -749213 1.58005e-09 -1.0089e-09 -7.55979e-10
221 1 Ni 58.71 9.16708 0.334152 23.2998 2.02782e-27 -4.45579 0 -186203 -749213 -186203 1.85659e-09 -8.89387e-10 -1.88995e-10
222 1 Ni 58.71 7.40049 2.10074 23.2998 1.93429e-27 -4.45579 0 -749213 -186203 -186203 -1.52307e-09 2.77933e-11 -6.48279e-10
223 2 Al 26.982 10.9337 0.334152 21.5332 8.66613e-28 -5.15854 0 1.12162e+06 1.12162e+06 1.12162e+06 -1.11729e-09 7.33744e-10 6.51476e-09
224 1 Ni 58.71 10.9337 2.10074 23.2998 1.87118e-27 -4.45579 0 -749213 -186203 -186203 -8.22683e-10 8.338e-10 -6.00336e-10
225 2 Al 26.982 0.334152 3.86732 21.5332 8.19281e-28 -5.15854 0 1.12162e+06 1.12162e+06 1.12162e+06 6.00058e-09 6.159e-09 1.07838e-09
226 1 Ni 58.71 2.10074 5.63391 21.5332 8.10949e-28 -4.45579 0 -186203 -186203 -749213 1.2368e-09 -7.78213e-10 -8.22683e-10
227 1 Ni 58.71 2.10074 3.86732 23.2998 1.82385e-27 -4.45579 0 -186203 -749213 -186203 -1.70095e-09 -6.22571e-10 -1.72319e-10
228 1 Ni 58.71 0.334152 5.63391 23.2998 1.82587e-27 -4.45579 0 -749213 -186203 -186203 -1.20623e-09 1.55643e-10 -9.72767e-12
229 2 Al 26.982 3.86732 3.86732 21.5332 8.14104e-28 -5.15854 0 1.12162e+06 1.12162e+06 1.12162e+06 1.35701e-09 7.84988e-10 8.05312e-10
230 1 Ni 58.71 5.63391 5.63391 21.5332 8.07794e-28 -4.45579 0 -186203 -186203 -749213 1.57866e-09 -7.89331e-10 -7.89331e-10
231 1 Ni 58.71 5.63391 3.86732 23.2998 1.82069e-27 -4.45579 0 -186203 -749213 -186203 -1.75654e-09 2.60562e-13 -1.11173e-11
232 1 Ni 58.71 3.86732 5.63391 23.2998 1.82069e-27 -4.45579 0 -749213 -186203 -186203 -1.67872e-09 -1.32018e-11 4.69012e-12
233 2 Al 26.982 7.40049 3.86732 21.5332 9.24545e-28 -5.15854 0 1.12162e+06 1.12162e+06 1.12162e+06 1.93268e-09 8.1226e-10 7.67965e-10