ITEM: TIMESTEP
5
ITEM: NUMBER OF ATOMS
4000
ITEM: BOX BOUNDS pp pp pp
9.0000000000000011e-02 3.5909999999999997e+01
9.0000000000000011e-02 3.5909999999999997e+01
9.0000000000000011e-02 3.5909999999999997e+01
ITEM: ATOMS id type element mass x y z c_csym c_potEnergy c_kinEnergy c_sigma[1] c_sigma[2] c_sigma[3] c_sigma[4] c_sigma[5] c_sigma[6]
1 2 Al 26.982 0.09 0.09 0.09 4.84789e-28 -5.09882 0 2.0767e+06 2.0767e+06 2.0767e+06 -8.89387e-10 -1.11173e-09 -1.1562e-09
2 1 Ni 58.71 1.881 1.881 0.09 1.63174e-28 -4.46095 0 576637 576637 184654 8.73753e-10 9.00504e-10 9.00504e-10
3 1 Ni 58.71 1.881 0.09 1.881 1.63174e-28 -4.46095 0 576637 184654 576637 7.55979e-10 8.40748e-10 1.09506e-09
4 1 Ni 58.71 0.09 1.881 1.881 1.63174e-28 -4.46095 0 184654 576637 576637 7.78213e-10 1.1562e-09 8.43006e-10
5 2 Al 26.982 3.672 0.09 0.09 3.26348e-28 -5.09882 0 2.0767e+06 2.0767e+06 2.0767e+06 -1.20519e-09 -1.54948e-09 -8.44917e-10
6 1 Ni 58.71 5.463 1.881 0.09 1.75007e-28 -4.46095 0 576637 576637 184654 -2.22347e-11 -3.39079e-10 8.22683e-10
7 1 Ni 58.71 5.463 0.09 1.881 1.75007e-28 -4.46095 0 576637 184654 576637 -2.33464e-10 -9.44973e-11 8.22683e-10
8 1 Ni 58.71 3.672 1.881 1.881 4.73317e-30 -4.46095 0 184654 576637 576637 -5.10702e-11 -9.41499e-11 7.36697e-10
9 2 Al 26.982 7.254 0.09 0.09 3.35814e-28 -5.09882 0 2.0767e+06 2.0767e+06 2.0767e+06 1.26564e-09 1.68636e-09 -1.11173e-09
10 1 Ni 58.71 9.045 1.881 0.09 1.62385e-28 -4.46095 0 576637 576637 184654 -6.59397e-10 -8.22683e-10 6.11453e-10
11 1 Ni 58.71 9.045 0.09 1.881 1.62385e-28 -4.46095 0 576637 184654 576637 -7.33744e-10 -7.33744e-10 7.33744e-10
12 1 Ni 58.71 7.254 1.881 1.881 1.41995e-29 -4.46095 0 184654 576637 576637 6.11453e-11 -1.6676e-11 7.70049e-10
13 2 Al 26.982 10.836 0.09 0.09 3.7368e-28 -5.09882 0 2.0767e+06 2.0767e+06 2.0767e+06 -4.89163e-10 -6.6704e-10 -6.44805e-10
14 1 Ni 58.71 10.836 1.881 1.881 5.20648e-29 -4.46095 0 184654 576637 576637 8.44917e-10 6.22571e-10 8.96335e-10
15 2 Al 26.982 0.09 3.672 0.09 3.26348e-28 -5.09882 0 2.0767e+06 2.0767e+06 2.0767e+06 5.20291e-09 -3.11285e-10 -1.95665e-09
16 1 Ni 58.71 1.881 5.463 0.09 1.75007e-28 -4.46095 0 576637 576637 184654 7.81687e-12 6.6704e-10 -5.50308e-10
17 1 Ni 58.71 1.881 3.672 1.881 4.73317e-30 -4.46095 0 576637 184654 576637 4.44693e-11 7.81861e-10 -4.41219e-11
18 1 Ni 58.71 0.09 5.463 1.881 1.75007e-28 -4.46095 0 184654 576637 576637 -2.44581e-10 8.22683e-10 -1.58075e-10
19 2 Al 26.982 3.672 3.672 0.09 1.67907e-28 -5.09882 0 2.0767e+06 2.0767e+06 2.0767e+06 7.3965e-10 -1.41538e-09 -1.46957e-09
20 1 Ni 58.71 5.463 5.463 0.09 1.8684e-28 -4.46095 0 576637 576637 184654 -2.44581e-10 -1.44525e-10 -1.77877e-10
21 1 Ni 58.71 5.463 3.672 1.881 1.65661e-29 -4.46095 0 576637 184654 576637 9.22739e-10 4.44693e-11 5.55867e-11
22 1 Ni 58.71 3.672 5.463 1.881 1.65661e-29 -4.46095 0 184654 576637 576637 8.94945e-10 5.03754e-11 -5.21125e-12
23 2 Al 26.982 7.254 3.672 0.09 1.77374e-28 -5.09882 0 2.0767e+06 2.0767e+06 2.0767e+06 -1.38767e-09 1.96499e-09 -1.46262e-09
24 1 Ni 58.71 9.045 5.463 0.09 1.74218e-28 -4.46095 0 576637 576637 184654 1.36743e-09 -8.56035e-10 3.3352e-11
25 1 Ni 58.71 9.045 3.672 1.881 3.9443e-30 -4.46095 0 576637 184654 576637 8.89387e-11 -6.89275e-10 7.22627e-11
26 1 Ni 58.71 7.254 5.463 1.881 2.60324e-29 -4.46095 0 184654 576637 576637 -7.94889e-10 -8.89387e-11 -9.41499e-11
27 2 Al 26.982 10.836 3.672 0.09 2.15239e-28 -5.09882 0 2.0767e+06 2.0767e+06 2.0767e+06 1.37855e-09 -8.44917e-10 -1.76392e-09
28 1 Ni 58.71 10.836 5.463 1.881 6.38977e-29 -4.46095 0 184654 576637 576637 -5.78101e-10 8.00448e-10 -2.77412e-10
29 2 Al 26.982 0.09 7.254 0.09 3.35814e-28 -5.09882 0 2.0767e+06 2.0767e+06 2.0767e+06 7.04839e-09 -2.22347e-10 1.20067e-09
30 1 Ni 58.71 1.881 7.254 1.881 1.41995e-29 -4.46095 0 576637 184654 576637 -0 7.59453e-10 7.22627e-11
31 2 Al 26.982 3.672 7.254 0.09 1.77374e-28 -5.09882 0 2.0767e+06 2.0767e+06 2.0767e+06 -1.32817e-09 -1.38202e-09 2.04559e-09
32 1 Ni 58.71 5.463 7.254 1.881 2.60324e-29 -4.46095 0 576637 184654 576637 -8.22683e-10 -8.70279e-11 -4.44693e-11
33 2 Al 26.982 7.254 7.254 0.09 1.8684e-28 -5.09882 0 2.0767e+06 2.0767e+06 2.0767e+06 1.51534e-09 1.76939e-09 1.91218e-09
34 1 Ni 58.71 9.045 7.254 1.881 1.34106e-29 -4.46095 0 576637 184654 576637 -1.57866e-09 -7.33744e-10 2.05671e-10
35 2 Al 26.982 10.836 7.254 0.09 2.24705e-28 -5.09882 0 2.0767e+06 2.0767e+06 2.0767e+06 -6.44805e-10 -7.55979e-10 1.64537e-09
36 2 Al 26.982 0.09 0.09 3.672 3.26348e-28 -5.09882 0 2.0767e+06 2.0767e+06 2.0767e+06 -7.55979e-10 5.69207e-09 5.73654e-09
37 1 Ni 58.71 1.881 1.881 3.672 4.73317e-30 -4.46095 0 576637 576637 184654 6.48974e-10 -4.44693e-11 -1.38967e-10
38 1 Ni 58.71 1.881 0.09 5.463 1.75007e-28 -4.46095 0 576637 184654 576637 7.78213e-10 -3.30046e-12 -2.94609e-10
39 1 Ni 58.71 0.09 1.881 5.463 1.75007e-28 -4.46095 0 184654 576637 576637 7.55979e-10 -2.22347e-10 1.22291e-10
40 2 Al 26.982 3.672 0.09 3.672 1.67907e-28 -5.09882 0 2.0767e+06 2.0767e+06 2.0767e+06 -1.46645e-09 7.59105e-10 5.73654e-09
41 1 Ni 58.71 5.463 1.881 3.672 1.65661e-29 -4.46095 0 576637 576637 184654 1.35319e-10 7.61537e-10 -8.89387e-11
42 1 Ni 58.71 5.463 0.09 5.463 1.8684e-28 -4.46095 0 576637 184654 576637 -3.22403e-10 -1.22291e-10 -0
43 1 Ni 58.71 3.672 1.881 5.463 1.65661e-29 -4.46095 0 184654 576637 576637 9.90137e-11 7.56326e-10 5.15914e-11
44 2 Al 26.982 7.254 0.09 3.672 1.77374e-28 -5.09882 0 2.0767e+06 2.0767e+06 2.0767e+06 1.56407e-09 -1.51404e-09 5.69207e-09
45 1 Ni 58.71 9.045 1.881 3.672 3.9443e-30 -4.46095 0 576637 576637 184654 -5.82618e-10 1.11173e-10 3.89107e-11
46 1 Ni 58.71 9.045 0.09 5.463 1.74218e-28 -4.46095 0 576637 184654 576637 -7.11509e-10 1.40078e-09 -1.38967e-10
47 1 Ni 58.71 7.254 1.881 5.463 2.60324e-29 -4.46095 0 184654 576637 576637 1.00056e-10 -7.33744e-10 -5.9582e-11
48 2 Al 26.982 10.836 0.09 3.672 2.15239e-28 -5.09882 0 2.0767e+06 2.0767e+06 2.0767e+06 -5.55867e-10 1.42302e-09 5.78101e-09
49 1 Ni 58.71 10.836 1.881 5.463 6.38977e-29 -4.46095 0 184654 576637 576637 8.89387e-10 -6.6704e-10 -1.11173e-10
50 2 Al 26.982 0.09 3.672 3.672 1.67907e-28 -5.09882 0 2.0767e+06 2.0767e+06 2.0767e+06 4.95833e-09 4.9361e-09 1.13397e-09
51 1 Ni 58.71 1.881 5.463 3.672 1.65661e-29 -4.46095 0 576637 576637 184654 6.07979e-11 -2.22347e-11 9.0641e-10
52 1 Ni 58.71 1.881 3.672 5.463 1.65661e-29 -4.46095 0 576637 184654 576637 -2.22347e-11 3.3352e-11 8.44917e-10
53 1 Ni 58.71 0.09 5.463 5.463 1.8684e-28 -4.46095 0 184654 576637 576637 -3.00168e-10 4.44693e-11 -1.00056e-10
54 2 Al 26.982 3.672 3.672 3.672 9.46633e-30 -5.09882 0 2.0767e+06 2.0767e+06 2.0767e+06 7.63622e-10 7.25059e-10 7.6119e-10
55 1 Ni 58.71 5.463 5.463 3.672 2.8399e-29 -4.46095 0 576637 576637 184654 -2.66816e-10 6.61481e-10 7.89331e-10
56 1 Ni 58.71 5.463 3.672 5.463 2.8399e-29 -4.46095 0 576637 184654 576637 9.00504e-10 -1.11173e-10 6.78157e-10
57 1 Ni 58.71 3.672 5.463 5.463 2.8399e-29 -4.46095 0 184654 576637 576637 8.72711e-10 6.72946e-10 -0
58 2 Al 26.982 7.254 3.672 3.672 1.89327e-29 -5.09882 0 2.0767e+06 2.0767e+06 2.0767e+06 -1.3029e-09 -1.41051e-09 7.22974e-10
59 1 Ni 58.71 9.045 5.463 3.672 1.57772e-29 -4.46095 0 576637 576637 184654 1.28961e-09 8.89387e-11 8.84175e-10
60 1 Ni 58.71 9.045 3.672 5.463 1.57772e-29 -4.46095 0 576637 184654 576637 9.2934e-11 1.22291e-09 7.22627e-10
61 1 Ni 58.71 7.254 5.463 5.463 3.78653e-29 -4.46095 0 184654 576637 576637 -8.61593e-10 -6.83716e-10 1.11173e-10
62 2 Al 26.982 10.836 3.672 3.672 5.6798e-29 -5.09882 0 2.0767e+06 2.0767e+06 2.0767e+06 1.46193e-09 1.39523e-09 6.22571e-10
63 1 Ni 58.71 10.836 5.463 5.463 7.57306e-29 -4.46095 0 184654 576637 576637 -5.66984e-10 -8.22683e-10 2.00112e-10
64 2 Al 26.982 0.09 7.254 3.672 1.77374e-28 -5.09882 0 2.0767e+06 2.0767e+06 2.0767e+06 7.04839e-09 4.98057e-09 -9.33856e-10
65 1 Ni 58.71 1.881 7.254 5.463 2.60324e-29 -4.46095 0 576637 184654 576637 1.44525e-10 -2.22347e-11 -7.44861e-10
66 2 Al 26.982 3.672 7.254 3.672 1.89327e-29 -5.09882 0 2.0767e+06 2.0767e+06 2.0767e+06 -1.28822e-09 8.37969e-10 -1.44595e-09
67 1 Ni 58.71 5.463 7.254 5.463 3.78653e-29 -4.46095 0 576637 184654 576637 -7.67096e-10 1.61201e-10 -6.22571e-10
68 2 Al 26.982 7.254 7.254 3.672 2.8399e-29 -5.09882 0 2.0767e+06 2.0767e+06 2.0767e+06 1.59317e-09 -1.40634e-09 -1.29308e-09
69 1 Ni 58.71 9.045 7.254 5.463 2.52435e-29 -4.46095 0 576637 184654 576637 -1.55643e-09 1.24514e-09 -8.17124e-10
70 2 Al 26.982 10.836 7.254 3.672 6.62643e-29 -5.09882 0 2.0767e+06 2.0767e+06 2.0767e+06 -1.28961e-09 1.42302e-09 -1.42302e-09
71 2 Al 26.982 0.09 0.09 7.254 3.35814e-28 -5.09882 0 2.0767e+06 2.0767e+06 2.0767e+06 -1.17844e-09 8.09342e-09 7.93778e-09
72 1 Ni 58.71 1.881 1.881 7.254 1.41995e-29 -4.46095 0 576637 576637 184654 9.04673e-10 1.11173e-10 2.27905e-10
73 2 Al 26.982 3.672 0.09 7.254 1.77374e-28 -5.09882 0 2.0767e+06 2.0767e+06 2.0767e+06 -1.28892e-09 -1.33269e-09 7.64872e-09
74 1 Ni 58.71 5.463 1.881 7.254 2.60324e-29 -4.46095 0 576637 576637 184654 -8.70279e-11 -7.00392e-10 1.11173e-10
75 2 Al 26.982 7.254 0.09 7.254 1.8684e-28 -5.09882 0 2.0767e+06 2.0767e+06 2.0767e+06 1.34103e-09 1.77009e-09 7.73766e-09
76 1 Ni 58.71 9.045 1.881 7.254 1.34106e-29 -4.46095 0 576637 576637 184654 -7.27143e-10 -1.71207e-09 1.44525e-10
77 2 Al 26.982 10.836 0.09 7.254 2.24705e-28 -5.09882 0 2.0767e+06 2.0767e+06 2.0767e+06 -4.89163e-10 -8.44917e-10 7.78213e-09
78 2 Al 26.982 0.09 3.672 7.254 1.77374e-28 -5.09882 0 2.0767e+06 2.0767e+06 2.0767e+06 4.86939e-09 7.33744e-09 -1.06726e-09
79 1 Ni 58.71 1.881 5.463 7.254 2.60324e-29 -4.46095 0 576637 576637 184654 -5.90608e-12 1.77877e-10 -7.77171e-10
80 2 Al 26.982 3.672 3.672 7.254 1.89327e-29 -5.09882 0 2.0767e+06 2.0767e+06 2.0767e+06 8.22683e-10 -1.42128e-09 -1.36778e-09
81 1 Ni 58.71 5.463 5.463 7.254 3.78653e-29 -4.46095 0 576637 576637 184654 -1.55643e-10 -8.11565e-10 -9.51053e-10
82 2 Al 26.982 7.254 3.672 7.254 2.8399e-29 -5.09882 0 2.0767e+06 2.0767e+06 2.0767e+06 -1.3815e-09 1.72102e-09 -1.30907e-09
83 1 Ni 58.71 9.045 5.463 7.254 2.52435e-29 -4.46095 0 576637 576637 184654 1.32296e-09 -1.48972e-09 -9.21696e-10
84 2 Al 26.982 10.836 3.672 7.254 6.62643e-29 -5.09882 0 2.0767e+06 2.0767e+06 2.0767e+06 1.3452e-09 -9.78325e-10 -1.27849e-09
85 2 Al 26.982 0.09 7.254 7.254 1.8684e-28 -5.09882 0 2.0767e+06 2.0767e+06 2.0767e+06 6.93722e-09 7.38191e-09 2.22347e-09
86 2 Al 26.982 3.672 7.254 7.254 2.8399e-29 -5.09882 0 2.0767e+06 2.0767e+06 2.0767e+06 -1.35909e-09 -1.3782e-09 1.64537e-09
87 2 Al 26.982 7.254 7.254 7.254 3.78653e-29 -5.09882 0 2.0767e+06 2.0767e+06 2.0767e+06 1.72657e-09 1.74733e-09 1.82324e-09
88 2 Al 26.982 10.836 7.254 7.254 7.57306e-29 -5.09882 0 2.0767e+06 2.0767e+06 2.0767e+06 -9.78325e-10 -8.22683e-10 1.75654e-09
89 1 Ni 58.71 1.881 0.09 9.045 1.62385e-28 -4.46095 0 576637 184654 576637 7.11509e-10 -8.00448e-10 -1.01724e-09
90 1 Ni 58.71 0.09 1.881 9.045 1.62385e-28 -4.46095 0 184654 576637 576637 7.00392e-10 -9.06063e-10 -7.22627e-10
91 1 Ni 58.71 5.463 0.09 9.045 1.74218e-28 -4.46095 0 576637 184654 576637 -1.38967e-10 1.22291e-09 -6.6704e-10
92 1 Ni 58.71 3.672 1.881 9.045 3.9443e-30 -4.46095 0 184654 576637 576637 1.28197e-10 3.77989e-10 -7.78213e-10
93 1 Ni 58.71 9.045 0.09 9.045 1.61596e-28 -4.46095 0 576637 184654 576637 -7.89331e-10 6.78157e-10 -8.11565e-10
94 1 Ni 58.71 7.254 1.881 9.045 1.34106e-29 -4.46095 0 184654 576637 576637 4.44693e-11 -1.55643e-09 -8.44917e-10
95 1 Ni 58.71 10.836 1.881 9.045 5.1276e-29 -4.46095 0 184654 576637 576637 8.44917e-10 6.6704e-10 -9.33856e-10
96 1 Ni 58.71 1.881 3.672 9.045 3.9443e-30 -4.46095 0 576637 184654 576637 -2.22347e-11 -8.11565e-10 1.6676e-10
97 1 Ni 58.71 0.09 5.463 9.045 1.74218e-28 -4.46095 0 184654 576637 576637 -2.22347e-10 -7.83772e-10 1.18955e-09
98 1 Ni 58.71 5.463 3.672 9.045 1.57772e-29 -4.46095 0 576637 184654 576637 8.94945e-10 1.46749e-09 4.44693e-11
99 1 Ni 58.71 3.672 5.463 9.045 1.57772e-29 -4.46095 0 184654 576637 576637 7.9541e-10 2.66816e-10 1.22291e-09
100 1 Ni 58.71 9.045 3.672 9.045 3.15544e-30 -4.46095 0 576637 184654 576637 -4.0474e-11 8.22683e-10 1.44525e-10
101 1 Ni 58.71 7.254 5.463 9.045 2.52435e-29 -4.46095 0 184654 576637 576637 -8.56035e-10 -1.41746e-09 1.37855e-09
102 1 Ni 58.71 10.836 5.463 9.045 6.31089e-29 -4.46095 0 184654 576637 576637 -6.78157e-10 5.8366e-10 1.13397e-09
103 1 Ni 58.71 1.881 7.254 9.045 1.34106e-29 -4.46095 0 576637 184654 576637 6.6704e-11 -8.11565e-10 -1.37855e-09
104 1 Ni 58.71 5.463 7.254 9.045 2.52435e-29 -4.46095 0 576637 184654 576637 -7.89331e-10 1.39001e-09 -1.37855e-09
105 1 Ni 58.71 9.045 7.254 9.045 1.26218e-29 -4.46095 0 576637 184654 576637 -1.33408e-09 8.00448e-10 -1.44525e-09
106 2 Al 26.982 0.09 0.09 10.836 3.7368e-28 -5.09882 0 2.0767e+06 2.0767e+06 2.0767e+06 -9.78325e-10 -6.6704e-10 -7.33744e-10
107 1 Ni 58.71 1.881 1.881 10.836 5.20648e-29 -4.46095 0 576637 576637 184654 9.75372e-10 6.1458e-10 6.39073e-10
108 1 Ni 58.71 1.881 0.09 12.627 1.62385e-28 -4.46095 0 576637 184654 576637 6.6704e-10 6.6704e-11 7.60981e-09
109 1 Ni 58.71 0.09 1.881 12.627 1.62385e-28 -4.46095 0 184654 576637 576637 6.44805e-10 7.49308e-09 -0
110 2 Al 26.982 3.672 0.09 10.836 2.15239e-28 -5.09882 0 2.0767e+06 2.0767e+06 2.0767e+06 -1.12389e-09 1.45151e-09 -4.44693e-10
111 1 Ni 58.71 5.463 1.881 10.836 6.38977e-29 -4.46095 0 576637 576637 184654 -3.11285e-10 -6.50364e-10 7.89157e-10
112 1 Ni 58.71 5.463 0.09 12.627 1.74218e-28 -4.46095 0 576637 184654 576637 -4.44693e-11 8.338e-12 7.20403e-09
113 1 Ni 58.71 3.672 1.881 12.627 3.9443e-30 -4.46095 0 184654 576637 576637 -7.88636e-11 2.22347e-11 -4.44693e-11
114 2 Al 26.982 7.254 0.09 10.836 2.24705e-28 -5.09882 0 2.0767e+06 2.0767e+06 2.0767e+06 1.29065e-09 -7.75608e-10 -4.00224e-10
115 1 Ni 58.71 9.045 1.881 10.836 5.1276e-29 -4.46095 0 576637 576637 184654 -8.92861e-10 8.00448e-10 7.84119e-10
116 1 Ni 58.71 9.045 0.09 12.627 1.61596e-28 -4.46095 0 576637 184654 576637 -7.89331e-10 2.00112e-10 7.28185e-09
117 1 Ni 58.71 7.254 1.881 12.627 1.34106e-29 -4.46095 0 184654 576637 576637 2.74807e-10 -5.0028e-11 8.89387e-11
118 2 Al 26.982 10.836 0.09 10.836 2.62571e-28 -5.09882 0 2.0767e+06 2.0767e+06 2.0767e+06 -4.89163e-10 1.11173e-10 -5.11397e-10
119 1 Ni 58.71 10.836 1.881 12.627 5.1276e-29 -4.46095 0 184654 576637 576637 7.78213e-10 -7.22627e-11 2.22347e-11
120 2 Al 26.982 0.09 3.672 10.836 2.15239e-28 -5.09882 0 2.0767e+06 2.0767e+06 2.0767e+06 5.64761e-09 -6.6704e-10 1.63772e-09
121 1 Ni 58.71 1.881 5.463 10.836 6.38977e-29 -4.46095 0 576637 576637 184654 -1.44525e-10 7.20195e-10 -5.80533e-10
122 1 Ni 58.71 1.881 3.672 12.627 3.9443e-30 -4.46095 0 576637 184654 576637 -1.88995e-10 -3.3352e-11 -3.89107e-11
123 1 Ni 58.71 0.09 5.463 12.627 1.74218e-28 -4.46095 0 184654 576637 576637 -2.22347e-11 7.27074e-09 -1.00056e-10
124 2 Al 26.982 3.672 3.672 10.836 5.6798e-29 -5.09882 0 2.0767e+06 2.0767e+06 2.0767e+06 7.75087e-10 1.44986e-09 1.4344e-09
125 1 Ni 58.71 5.463 5.463 10.836 7.57306e-29 -4.46095 0 576637 576637 184654 -2.77933e-11 -7.67096e-10 -7.01782e-10
126 1 Ni 58.71 5.463 3.672 12.627 1.57772e-29 -4.46095 0 576637 184654 576637 7.55979e-10 -2.0845e-11 -5.55867e-11
127 1 Ni 58.71 3.672 5.463 12.627 1.57772e-29 -4.46095 0 184654 576637 576637 7.89331e-10 -1.6676e-11 1.2507e-11
128 2 Al 26.982 7.254 3.672 10.836 6.62643e-29 -5.09882 0 2.0767e+06 2.0767e+06 2.0767e+06 -1.398e-09 -1.16055e-09 1.44152e-09
129 1 Ni 58.71 9.045 5.463 10.836 6.31089e-29 -4.46095 0 576637 576637 184654 1.33408e-09 5.89219e-10 -7.39303e-10
130 1 Ni 58.71 9.045 3.672 12.627 3.15544e-30 -4.46095 0 576637 184654 576637 -1.11173e-10 -6.6704e-11 2.77933e-11
131 1 Ni 58.71 7.254 5.463 12.627 2.52435e-29 -4.46095 0 184654 576637 576637 -9.67208e-10 -2.22347e-11 4.5859e-11
132 2 Al 26.982 10.836 3.672 10.836 1.0413e-28 -5.09882 0 2.0767e+06 2.0767e+06 2.0767e+06 1.1562e-09 4.00224e-10 1.37855e-09
133 1 Ni 58.71 10.836 5.463 12.627 6.31089e-29 -4.46095 0 184654 576637 576637 -3.3352e-10 -5.55867e-11 8.89387e-11
134 2 Al 26.982 0.09 7.254 10.836 2.24705e-28 -5.09882 0 2.0767e+06 2.0767e+06 2.0767e+06 7.38191e-09 -3.55755e-10 -9.11621e-10
135 1 Ni 58.71 1.881 7.254 12.627 1.34106e-29 -4.46095 0 576637 184654 576637 2.77933e-10 3.3352e-11 5.55867e-12
136 2 Al 26.982 3.672 7.254 10.836 6.62643e-29 -5.09882 0 2.0767e+06 2.0767e+06 2.0767e+06 -1.45533e-09 1.42015e-09 -1.06726e-09
137 1 Ni 58.71 5.463 7.254 12.627 2.52435e-29 -4.46095 0 576637 184654 576637 -1.06726e-09 -3.19623e-11 -5.0028e-11
138 2 Al 26.982 7.254 7.254 10.836 7.57306e-29 -5.09882 0 2.0767e+06 2.0767e+06 2.0767e+06 1.98531e-09 -1.00473e-09 -1.02279e-09
139 1 Ni 58.71 9.045 7.254 12.627 1.26218e-29 -4.46095 0 576637 184654 576637 -1.54531e-09 -0 5.0028e-11
140 2 Al 26.982 10.836 7.254 10.836 1.13596e-28 -5.09882 0 2.0767e+06 2.0767e+06 2.0767e+06 -8.67152e-10 5.78101e-10 -9.11621e-10
141 2 Al 26.982 0.09 0.09 14.418 3.7368e-28 -5.09882 0 2.0767e+06 2.0767e+06 2.0767e+06 -1.11173e-09 6.22571e-10 6.44805e-10
142 1 Ni 58.71 1.881 1.881 14.418 5.20648e-29 -4.46095 0 576637 576637 184654 9.92048e-10 -7.29922e-10 -7.63274e-10
143 1 Ni 58.71 1.881 0.09 16.209 1.62385e-28 -4.46095 0 576637 184654 576637 4.78045e-10 7.55979e-10 6.68152e-09
144 1 Ni 58.71 0.09 1.881 16.209 1.62385e-28 -4.46095 0 184654 576637 576637 5.33632e-10 6.6037e-09 7.33744e-10
145 2 Al 26.982 3.672 0.09 14.418 2.15239e-28 -5.09882 0 2.0767e+06 2.0767e+06 2.0767e+06 -1.32296e-09 -1.47513e-09 4.89163e-10
146 1 Ni 58.71 5.463 1.881 14.418 6.38977e-29 -4.46095 0 576637 576637 184654 -2.66816e-10 7.61537e-10 -8.338e-10
147 1 Ni 58.71 5.463 0.09 16.209 1.74218e-28 -4.46095 0 576637 184654 576637 1.22291e-10 -7.44861e-10 6.62593e-09
148 1 Ni 58.71 3.672 1.881 16.209 3.9443e-30 -4.46095 0 184654 576637 576637 -5.66289e-11 1.21179e-09 8.22683e-10
149 2 Al 26.982 7.254 0.09 14.418 2.24705e-28 -5.09882 0 2.0767e+06 2.0767e+06 2.0767e+06 1.21248e-09 8.68889e-10 7.55979e-10
150 1 Ni 58.71 9.045 1.881 14.418 5.1276e-29 -4.46095 0 576637 576637 184654 -8.92861e-10 -1.02279e-09 -8.57772e-10
151 1 Ni 58.71 9.045 0.09 16.209 1.61596e-28 -4.46095 0 576637 184654 576637 -6.44805e-10 7.55979e-10 6.65928e-09
152 1 Ni 58.71 7.254 1.881 16.209 1.34106e-29 -4.46095 0 184654 576637 576637 3.19276e-10 -7.67096e-10 6.00336e-10
153 2 Al 26.982 10.836 0.09 14.418 2.62571e-28 -5.09882 0 2.0767e+06 2.0767e+06 2.0767e+06 -2.89051e-10 -0 5.22515e-10
154 1 Ni 58.71 10.836 1.881 16.209 5.1276e-29 -4.46095 0 184654 576637 576637 7.89331e-10 1.72319e-10 6.00336e-10
155 2 Al 26.982 0.09 3.672 14.418 2.15239e-28 -5.09882 0 2.0767e+06 2.0767e+06 2.0767e+06 5.13621e-09 1.11173e-09 -1.83436e-09
156 1 Ni 58.71 1.881 5.463 14.418 6.38977e-29 -4.46095 0 576637 576637 184654 -2.00112e-10 -7.63274e-10 7.78213e-10
157 1 Ni 58.71 1.881 3.672 16.209 3.9443e-30 -4.46095 0 576637 184654 576637 -1.33408e-10 7.67096e-10 1.35076e-09
158 1 Ni 58.71 0.09 5.463 16.209 1.74218e-28 -4.46095 0 184654 576637 576637 1.33408e-10 6.7371e-09 -9.44973e-10
159 2 Al 26.982 3.672 3.672 14.418 5.6798e-29 -5.09882 0 2.0767e+06 2.0767e+06 2.0767e+06 7.32702e-10 -1.59846e-09 -1.50605e-09
160 1 Ni 58.71 5.463 5.463 14.418 7.57306e-29 -4.46095 0 576637 576637 184654 -1.22291e-10 8.28241e-10 7.55979e-10
161 1 Ni 58.71 5.463 3.672 16.209 1.57772e-29 -4.46095 0 576637 184654 576637 9.33856e-10 -8.338e-10 1.56754e-09
162 1 Ni 58.71 3.672 5.463 16.209 1.57772e-29 -4.46095 0 184654 576637 576637 9.11621e-10 1.40634e-09 -7.39824e-10
163 2 Al 26.982 7.254 3.672 14.418 6.62643e-29 -5.09882 0 2.0767e+06 2.0767e+06 2.0767e+06 -1.41564e-09 1.12737e-09 -1.50362e-09
164 1 Ni 58.71 9.045 5.463 14.418 6.31089e-29 -4.46095 0 576637 576637 184654 1.48972e-09 -5.44749e-10 9.00504e-10
165 1 Ni 58.71 9.045 3.672 16.209 3.15544e-30 -4.46095 0 576637 184654 576637 -1.11173e-10 5.78101e-10 1.42858e-09
166 1 Ni 58.71 7.254 5.463 16.209 2.52435e-29 -4.46095 0 184654 576637 576637 -1.00056e-09 -8.89387e-10 -5.50829e-10
167 2 Al 26.982 10.836 3.672 14.418 1.0413e-28 -5.09882 0 2.0767e+06 2.0767e+06 2.0767e+06 1.17844e-09 4.44693e-11 -1.30707e-09
168 1 Ni 58.71 10.836 5.463 16.209 6.31089e-29 -4.46095 0 184654 576637 576637 -6.22571e-10 -4.44693e-11 -5.78101e-10
169 2 Al 26.982 0.09 7.254 14.418 2.24705e-28 -5.09882 0 2.0767e+06 2.0767e+06 2.0767e+06 6.42582e-09 1.11173e-09 6.00336e-10
170 1 Ni 58.71 1.881 7.254 16.209 1.34106e-29 -4.46095 0 576637 184654 576637 3.89107e-10 7.78213e-10 -9.11621e-10
171 2 Al 26.982 3.672 7.254 14.418 6.62643e-29 -5.09882 0 2.0767e+06 2.0767e+06 2.0767e+06 -1.51092e-09 -1.55643e-09 1.02279e-09
172 1 Ni 58.71 5.463 7.254 16.209 2.52435e-29 -4.46095 0 576637 184654 576637 -1.06726e-09 -6.78157e-10 -7.11509e-10
173 2 Al 26.982 7.254 7.254 14.418 7.57306e-29 -5.09882 0 2.0767e+06 2.0767e+06 2.0767e+06 1.97758e-09 9.44973e-10 1.02279e-09
174 1 Ni 58.71 9.045 7.254 16.209 1.26218e-29 -4.46095 0 576637 184654 576637 -1.56754e-09 5.89219e-10 -9.1718e-10
175 2 Al 26.982 10.836 7.254 14.418 1.13596e-28 -5.09882 0 2.0767e+06 2.0767e+06 2.0767e+06 -7.78213e-10 -3.55755e-10 8.56035e-10
176 2 Al 26.982 0.09 0.09 18 3.23193e-28 -5.09882 0 2.0767e+06 2.0767e+06 2.0767e+06 -1.20067e-09 4.44693e-11 6.6704e-11
177 1 Ni 58.71 1.881 1.881 18 1.57772e-30 -4.46095 0 576637 576637 184654 1.05163e-09 -1.77877e-10 -1.11173e-10
178 1 Ni 58.71 1.881 0.09 19.791 1.62385e-28 -4.46095 0 576637 184654 576637 6.44805e-10 -1.2276e-09 1.6009e-09
179 1 Ni 58.71 0.09 1.881 19.791 1.62385e-28 -4.46095 0 184654 576637 576637 8.22683e-10 1.6676e-09 -1.32244e-09
180 2 Al 26.982 3.672 0.09 18 1.64752e-28 -5.09882 0 2.0767e+06 2.0767e+06 2.0767e+06 -1.23333e-09 1.19251e-10 1.33408e-10
181 1 Ni 58.71 5.463 1.881 18 1.34106e-29 -4.46095 0 576637 576637 184654 -3.11285e-10 -2.39023e-10 -1.11173e-10
182 1 Ni 58.71 5.463 0.09 19.791 1.74218e-28 -4.46095 0 576637 184654 576637 1.11173e-11 -9.28297e-10 1.44525e-09
183 1 Ni 58.71 3.672 1.881 19.791 3.9443e-30 -4.46095 0 184654 576637 576637 1.58075e-11 6.6704e-11 -1.54514e-09
184 2 Al 26.982 7.254 0.09 18 1.74218e-28 -5.09882 0 2.0767e+06 2.0767e+06 2.0767e+06 1.45116e-09 1.85868e-10 1.33408e-10
185 1 Ni 58.71 9.045 1.881 18 7.88861e-31 -4.46095 0 576637 576637 184654 -8.31715e-10 3.55755e-10 1.11173e-11
186 1 Ni 58.71 9.045 0.09 19.791 1.61596e-28 -4.46095 0 576637 184654 576637 -6.44805e-10 1.33408e-10 1.53975e-09
187 1 Ni 58.71 7.254 1.881 19.791 1.34106e-29 -4.46095 0 184654 576637 576637 1.77877e-10 5.8366e-10 -1.37838e-09
188 2 Al 26.982 10.836 0.09 18 2.12083e-28 -5.09882 0 2.0767e+06 2.0767e+06 2.0767e+06 -4.89163e-10 -2.89051e-10 3.3352e-10
189 1 Ni 58.71 10.836 1.881 19.791 5.1276e-29 -4.46095 0 184654 576637 576637 6.00336e-10 -5.39191e-10 -1.16558e-09
190 2 Al 26.982 0.09 3.672 18 1.64752e-28 -5.09882 0 2.0767e+06 2.0767e+06 2.0767e+06 5.02503e-09 7.78213e-10 -2.00112e-10
191 1 Ni 58.71 1.881 5.463 18 1.34106e-29 -4.46095 0 576637 576637 184654 -1.92643e-10 -2.27905e-10 -2.44581e-10
192 1 Ni 58.71 1.881 3.672 19.791 3.9443e-30 -4.46095 0 576637 184654 576637 -4.44693e-11 -1.36448e-09 -5.55867e-12
193 1 Ni 58.71 0.09 5.463 19.791 1.74218e-28 -4.46095 0 184654 576637 576637 -1.33408e-10 1.37855e-09 -7.53547e-10
194 2 Al 26.982 3.672 3.672 18 6.31089e-30 -5.09882 0 2.0767e+06 2.0767e+06 2.0767e+06 7.53199e-10 7.15678e-11 2.56741e-10
195 1 Ni 58.71 5.463 5.463 18 2.52435e-29 -4.46095 0 576637 576637 184654 2.22347e-11 5.0028e-11 2.22347e-11
196 1 Ni 58.71 5.463 3.672 19.791 1.57772e-29 -4.46095 0 576637 184654 576637 7.72655e-10 -5.66984e-10 -2.22347e-11
197 1 Ni 58.71 3.672 5.463 19.791 1.57772e-29 -4.46095 0 184654 576637 576637 8.17124e-10 7.78213e-11 -5.78101e-10
198 2 Al 26.982 7.254 3.672 18 1.57772e-29 -5.09882 0 2.0767e+06 2.0767e+06 2.0767e+06 -1.44864e-09 1.9907e-10 2.22347e-11
199 1 Ni 58.71 9.045 5.463 18 1.26218e-29 -4.46095 0 576637 576637 184654 1.54531e-09 5.55867e-11 -1.55643e-10
200 1 Ni 58.71 9.045 3.672 19.791 3.15544e-30 -4.46095 0 576637 184654 576637 -5.55867e-11 -2.22347e-11 -8.338e-11
201 1 Ni 58.71 7.254 5.463 19.791 2.52435e-29 -4.46095 0 184654 576637 576637 -7.22627e-10 7.33744e-10 -6.22571e-10
202 2 Al 26.982 10.836 3.672 18 5.36425e-29 -5.09882 0 2.0767e+06 2.0767e+06 2.0767e+06 1.13397e-09 -2.22347e-10 -2.9652e-10
203 1 Ni 58.71 10.836 5.463 19.791 6.31089e-29 -4.46095 0 184654 576637 576637 -6.44805e-10 -5.55867e-10 -9.33335e-10
204 2 Al 26.982 0.09 7.254 18 1.74218e-28 -5.09882 0 2.0767e+06 2.0767e+06 2.0767e+06 7.29297e-09 8.89387e-10 -4.00224e-10
205 1 Ni 58.71 1.881 7.254 19.791 1.34106e-29 -4.46095 0 576637 184654 576637 3.11285e-10 -1.35962e-09 6.6704e-10
206 2 Al 26.982 3.672 7.254 18 1.57772e-29 -5.09882 0 2.0767e+06 2.0767e+06 2.0767e+06 -1.34346e-09 1.65457e-10 1.77877e-10
207 1 Ni 58.71 5.463 7.254 19.791 2.52435e-29 -4.46095 0 576637 184654 576637 -6.55923e-10 -5.31374e-10 7.55979e-10
208 2 Al 26.982 7.254 7.254 18 2.52435e-29 -5.09882 0 2.0767e+06 2.0767e+06 2.0767e+06 1.95413e-09 4.82909e-11 8.89387e-11
209 1 Ni 58.71 9.045 7.254 19.791 1.26218e-29 -4.46095 0 576637 184654 576637 -1.72319e-09 1.11173e-11 8.67152e-10
210 2 Al 26.982 10.836 7.254 18 6.31089e-29 -5.09882 0 2.0767e+06 2.0767e+06 2.0767e+06 -8.00448e-10 -2.22347e-10 2.66816e-10
211 2 Al 26.982 0.09 0.09 21.582 5.25141e-28 -5.09882 0 2.0767e+06 2.0767e+06 2.0767e+06 -3.77989e-10 6.49252e-09 6.49252e-09
212 1 Ni 58.71 1.881 1.881 21.582 2.03526e-28 -4.46095 0 576637 576637 184654 9.70682e-10 1.57866e-09 1.45081e-09
213 1 Ni 58.71 1.881 0.09 23.373 3.64334e-28 -4.46095 0 576637 184654 576637 6.22571e-10 -1.30177e-09 1.4119e-09
214 1 Ni 58.71 0.09 1.881 23.373 3.64334e-28 -4.46095 0 184654 576637 576637 6.00336e-10 1.42302e-09 -1.1562e-09
215 2 Al 26.982 3.672 0.09 21.582 3.667e-28 -5.09882 0 2.0767e+06 2.0767e+06 2.0767e+06 -1.53628e-09 -1.37577e-09 6.49252e-09
216 1 Ni 58.71 5.463 1.881 21.582 2.15359e-28 -4.46095 0 576637 576637 184654 -6.792e-11 2.77933e-11 1.68983e-09
217 1 Ni 58.71 5.463 0.09 23.373 3.76166e-28 -4.46095 0 576637 184654 576637 1.22291e-10 -1.33408e-10 1.48972e-09
218 1 Ni 58.71 3.672 1.881 23.373 2.05893e-28 -4.46095 0 184654 576637 576637 7.12204e-11 1.49858e-09 -1.32435e-09
219 2 Al 26.982 7.254 0.09 21.582 3.76166e-28 -5.09882 0 2.0767e+06 2.0767e+06 2.0767e+06 1.17149e-09 6.858e-10 6.6704e-09
220 1 Ni 58.71 9.045 1.881 21.582 2.02737e-28 -4.46095 0 576637 576637 184654 -6.15622e-10 -1.40078e-09 1.54531e-09
221 1 Ni 58.71 9.045 0.09 23.373 3.63545e-28 -4.46095 0 576637 184654 576637 -7.44861e-10 1.38967e-09 1.26182e-09
222 1 Ni 58.71 7.254 1.881 23.373 2.15359e-28 -4.46095 0 184654 576637 576637 2.05671e-10 -1.54531e-09 -1.33547e-09
223 2 Al 26.982 10.836 0.09 21.582 4.14032e-28 -5.09882 0 2.0767e+06 2.0767e+06 2.0767e+06 -3.11285e-10 2.00112e-10 6.58146e-09
224 1 Ni 58.71 10.836 1.881 23.373 2.53224e-28 -4.46095 0 184654 576637 576637 6.22571e-10 2.44581e-10 -1.36743e-09
225 2 Al 26.982 0.09 3.672 21.582 3.667e-28 -5.09882 0 2.0767e+06 2.0767e+06 2.0767e+06 4.91386e-09 5.69207e-09 -1.06726e-09
226 1 Ni 58.71 1.881 5.463 21.582 2.15359e-28 -4.46095 0 576637 576637 184654 2.53614e-11 1.68983e-09 1.49215e-10
227 1 Ni 58.71 1.881 3.672 23.373 2.05893e-28 -4.46095 0 576637 184654 576637 2.22347e-11 -1.35631e-09 1.48416e-09
228 1 Ni 58.71 0.09 5.463 23.373 3.76166e-28 -4.46095 0 184654 576637 576637 1.22291e-10 1.46749e-09 -2.22347e-11
229 2 Al 26.982 3.672 3.672 21.582 2.08259e-28 -5.09882 0 2.0767e+06 2.0767e+06 2.0767e+06 7.55284e-10 -1.40947e-09 -1.37612e-09
230 1 Ni 58.71 5.463 5.463 21.582 2.27192e-28 -4.46095 0 576637 576637 184654 -3.77989e-10 1.6676e-11 8.89387e-11
231 1 Ni 58.71 5.463 3.672 23.373 2.17726e-28 -4.46095 0 576637 184654 576637 8.56035e-10 6.6704e-11 1.43414e-09
232 1 Ni 58.71 3.672 5.463 23.373 2.17726e-28 -4.46095 0 184654 576637 576637 8.67152e-10 1.40964e-09 6.6704e-11
233 2 Al 26.982 7.254 3.672 21.582 2.17726e-28 -5.09882 0 2.0767e+06 2.0767e+06 2.0767e+06 -1.40304e-09 8.16082e-10 -1.43622e-09
234 1 Ni 58.71 9.045 5.463 21.582 2.1457e-28 -4.46095 0 576637 576637 184654 1.28961e-09 -1.6009e-09 1.65891e-10
235 1 Ni 58.71 9.045 3.672 23.373 2.05104e-28 -4.46095 0 576637 184654 576637 -9.60607e-11 1.33408e-09 1.68428e-09
236 1 Ni 58.71 7.254 5.463 23.373 2.27192e-28 -4.46095 0 184654 576637 576637 -7.61537e-10 -1.25626e-09 1.55643e-10
237 2 Al 26.982 10.836 3.672 21.582 2.55591e-28 -5.09882 0 2.0767e+06 2.0767e+06 2.0767e+06 1.48972e-09 2.22347e-10 -1.24514e-09
238 1 Ni 58.71 10.836 5.463 23.373 2.65057e-28 -4.46095 0 184654 576637 576637 -8.67152e-10 -8.89387e-11 -1.11173e-10
239 2 Al 26.982 0.09 7.254 21.582 3.76166e-28 -5.09882 0 2.0767e+06 2.0767e+06 2.0767e+06 6.89275e-09 5.86995e-09 1.33408e-09
240 1 Ni 58.71 1.881 7.254 23.373 2.15359e-28 -4.46095 0 576637 184654 576637 2.55699e-10 -1.36743e-09 -1.67316e-09
241 2 Al 26.982 3.672 7.254 21.582 2.17726e-28 -5.09882 0 2.0767e+06 2.0767e+06 2.0767e+06 -1.31601e-09 -1.26911e-09 6.67735e-10
242 1 Ni 58.71 5.463 7.254 23.373 2.27192e-28 -4.46095 0 576637 184654 576637 -7.22627e-10 2.5014e-10 -1.20067e-09
243 2 Al 26.982 7.254 7.254 21.582 2.27192e-28 -5.09882 0 2.0767e+06 2.0767e+06 2.0767e+06 1.70182e-09 8.9425e-10 7.95932e-10
244 1 Ni 58.71 9.045 7.254 23.373 2.1457e-28 -4.46095 0 576637 184654 576637 -1.67872e-09 1.1562e-09 -1.60645e-09
245 2 Al 26.982 10.836 7.254 21.582 2.65057e-28 -5.09882 0 2.0767e+06 2.0767e+06 2.0767e+06 -7.44861e-10 2.72375e-10 8.44917e-10
246 2 Al 26.982 0.09 0.09 25.164 3.23193e-28 -5.09882 0 2.0767e+06 2.0767e+06 2.0767e+06 -6.44805e-10 5.55867e-09 5.69207e-09
247 1 Ni 58.71 1.881 1.881 25.164 1.57772e-30 -4.46095 0 576637 576637 184654 9.93959e-10 1.82324e-09 1.85104e-09
248 2 Al 26.982 3.672 0.09 25.164 1.64752e-28 -5.09882 0 2.0767e+06 2.0767e+06 2.0767e+06 -1.39627e-09 3.26572e-11 5.78101e-09
249 1 Ni 58.71 5.463 1.881 25.164 1.34106e-29 -4.46095 0 576637 576637 184654 -8.49434e-11 5.0028e-10 1.75654e-09
250 2 Al 26.982 7.254 0.09 25.164 1.74218e-28 -5.09882 0 2.0767e+06 2.0767e+06 2.0767e+06 1.38793e-09 -9.15095e-10 5.86995e-09
251 1 Ni 58.71 9.045 1.881 25.164 7.88861e-31 -4.46095 0 576637 576637 184654 -7.04561e-10 -4.44693e-11 1.54531e-09