ITEM: TIMESTEP
25
ITEM: NUMBER OF ATOMS
4000
ITEM: BOX BOUNDS pp pp pp
3.3415182609991290e-01 3.5665848173900073e+01
3.3415182609991290e-01 3.5665848173900073e+01
3.3415182609991290e-01 3.5665848173900073e+01
ITEM: ATOMS id type element mass x y z c_csym c_potEnergy c_kinEnergy c_sigma[1] c_sigma[2] c_sigma[3] c_sigma[4] c_sigma[5] c_sigma[6]
1 2 Al 26.982 0.334152 0.334152 0.334152 1.3312e-28 -5.15854 0 1.12162e+06 1.12162e+06 1.12162e+06 -1.24514e-09 -1.184e-09 -1.13953e-09
2 1 Ni 58.71 2.10074 2.10074 0.334152 4.43734e-29 -4.45579 0 -186203 -186203 -749213 -7.0873e-11 3.3352e-11 6.6704e-11
3 1 Ni 58.71 2.10074 0.334152 2.10074 4.43734e-29 -4.45579 0 -186203 -749213 -186203 1.77877e-10 -1.15342e-10 1.11173e-10
4 1 Ni 58.71 0.334152 2.10074 2.10074 4.43734e-29 -4.45579 0 -749213 -186203 -186203 1.55643e-10 1.77877e-10 -6.6704e-11
5 2 Al 26.982 3.86732 0.334152 0.334152 9.19023e-29 -5.15854 0 1.12162e+06 1.12162e+06 1.12162e+06 1.51847e-09 1.4073e-09 -5.11397e-10
6 1 Ni 58.71 5.63391 2.10074 0.334152 5.69952e-29 -4.45579 0 -186203 -186203 -749213 -2.61257e-10 -2.55699e-10 8.89387e-11
7 1 Ni 58.71 5.63391 0.334152 2.10074 5.69952e-29 -4.45579 0 -186203 -749213 -186203 -5.22515e-10 -1.83436e-10 6.6704e-11
8 1 Ni 58.71 3.86732 2.10074 2.10074 3.15544e-30 -4.45579 0 -749213 -186203 -186203 -2.03586e-10 -2.83492e-10 2.01502e-11
9 2 Al 26.982 7.40049 0.334152 0.334152 2.90695e-28 -5.15854 0 1.12162e+06 1.12162e+06 1.12162e+06 -1.39097e-09 -1.92408e-09 -1.51196e-09
10 1 Ni 58.71 9.16708 2.10074 0.334152 4.98757e-28 -4.45579 0 -186203 -186203 -749213 1.59812e-11 1.71207e-09 -6.11453e-11
11 1 Ni 58.71 9.16708 0.334152 2.10074 4.98757e-28 -4.45579 0 -186203 -749213 -186203 1.68983e-09 1.41746e-10 1.16732e-10
12 1 Ni 58.71 7.40049 2.10074 2.10074 2.01948e-28 -4.45579 0 -749213 -186203 -186203 2.22347e-11 7.57368e-11 -2.36243e-10
13 2 Al 26.982 10.9337 0.334152 0.334152 1.39234e-28 -5.15854 0 1.12162e+06 1.12162e+06 1.12162e+06 -4.00224e-10 -3.94665e-10 -1.1562e-09
14 1 Ni 58.71 10.9337 2.10074 2.10074 5.04871e-29 -4.45579 0 -749213 -186203 -186203 4.44693e-11 4.44693e-11 -6.2535e-11
15 2 Al 26.982 0.334152 3.86732 0.334152 9.19023e-29 -5.15854 0 1.12162e+06 1.12162e+06 1.12162e+06 1.77877e-10 -7.11509e-10 1.6009e-09
16 1 Ni 58.71 2.10074 5.63391 0.334152 5.69952e-29 -4.45579 0 -186203 -186203 -749213 -1.68844e-10 6.6704e-11 -1.88995e-10
17 1 Ni 58.71 2.10074 3.86732 2.10074 3.15544e-30 -4.45579 0 -186203 -749213 -186203 -2.66816e-10 2.57088e-11 -2.27905e-10
18 1 Ni 58.71 0.334152 5.63391 2.10074 5.69952e-29 -4.45579 0 -749213 -186203 -186203 -5.33632e-10 1.55643e-10 -1.0214e-10
19 2 Al 26.982 3.86732 3.86732 0.334152 5.06843e-29 -5.15854 0 1.12162e+06 1.12162e+06 1.12162e+06 -4.17074e-10 1.04494e-09 9.87619e-10
20 1 Ni 58.71 5.63391 5.63391 0.334152 6.9617e-29 -4.45579 0 -186203 -186203 -749213 -8.67152e-10 -1.6676e-10 -4.44693e-11
21 1 Ni 58.71 5.63391 3.86732 2.10074 1.57772e-29 -4.45579 0 -186203 -749213 -186203 3.44637e-10 -2.89051e-10 -2.22347e-11
22 1 Ni 58.71 3.86732 5.63391 2.10074 1.57772e-29 -4.45579 0 -749213 -186203 -186203 4.169e-10 -6.6704e-11 -3.00863e-10
23 2 Al 26.982 7.40049 3.86732 0.334152 2.49477e-28 -5.15854 0 1.12162e+06 1.12162e+06 1.12162e+06 -1.16211e-10 -1.86363e-09 1.37421e-09
24 1 Ni 58.71 9.16708 5.63391 0.334152 5.11379e-28 -4.45579 0 -186203 -186203 -749213 -7.78213e-10 1.48972e-09 1.16732e-10
25 1 Ni 58.71 9.16708 3.86732 2.10074 4.57539e-28 -4.45579 0 -186203 -749213 -186203 -1.62313e-09 1.53558e-10 -9.79715e-11
26 1 Ni 58.71 7.40049 5.63391 2.10074 2.1457e-28 -4.45579 0 -749213 -186203 -186203 1.85312e-09 -8.61593e-11 -2.49445e-10
27 2 Al 26.982 10.9337 3.86732 0.334152 9.8016e-29 -5.15854 0 1.12162e+06 1.12162e+06 1.12162e+06 1.28961e-09 -6.6704e-11 9.9144e-10
28 1 Ni 58.71 10.9337 5.63391 2.10074 6.31089e-29 -4.45579 0 -749213 -186203 -186203 -9.33856e-10 1.11173e-10 -2.22347e-11
29 2 Al 26.982 0.334152 7.40049 0.334152 2.90695e-28 -5.15854 0 1.12162e+06 1.12162e+06 1.12162e+06 -1.42302e-09 -1.53419e-09 -2.00112e-09
30 1 Ni 58.71 2.10074 7.40049 2.10074 2.01948e-28 -4.45579 0 -186203 -749213 -186203 -1.77877e-10 -2.62647e-10 -6.2535e-11
31 2 Al 26.982 3.86732 7.40049 0.334152 2.49477e-28 -5.15854 0 1.12162e+06 1.12162e+06 1.12162e+06 -1.99938e-10 1.30125e-09 -2.00112e-09
32 1 Ni 58.71 5.63391 7.40049 2.10074 2.1457e-28 -4.45579 0 -186203 -749213 -186203 1.78433e-09 -2.77933e-10 5.07228e-11
33 2 Al 26.982 7.40049 7.40049 0.334152 4.4827e-28 -5.15854 0 1.12162e+06 1.12162e+06 1.12162e+06 -6.6704e-10 -1.83323e-09 -1.95665e-09
34 1 Ni 58.71 9.16708 7.40049 2.10074 6.56332e-28 -4.45579 0 -186203 -749213 -186203 9.68598e-10 2.98778e-10 2.01502e-11
35 2 Al 26.982 10.9337 7.40049 0.334152 2.96809e-28 -5.15854 0 1.12162e+06 1.12162e+06 1.12162e+06 7.78213e-11 -5.55867e-10 -1.9233e-09
36 2 Al 26.982 0.334152 0.334152 3.86732 9.19023e-29 -5.15854 0 1.12162e+06 1.12162e+06 1.12162e+06 -7.33744e-10 1.77877e-10 2.94609e-10
37 1 Ni 58.71 2.10074 2.10074 3.86732 3.15544e-30 -4.45579 0 -186203 -186203 -749213 2.29295e-11 -3.55755e-10 -3.94665e-10
38 1 Ni 58.71 2.10074 0.334152 5.63391 5.69952e-29 -4.45579 0 -186203 -749213 -186203 2.22347e-11 -1.4661e-10 -5.11397e-10
39 1 Ni 58.71 0.334152 2.10074 5.63391 5.69952e-29 -4.45579 0 -749213 -186203 -186203 2.22347e-11 -5.61425e-10 -5.55867e-11
40 2 Al 26.982 3.86732 0.334152 3.86732 5.06843e-29 -5.15854 0 1.12162e+06 1.12162e+06 1.12162e+06 1.11677e-09 -4.82822e-10 -3.11285e-10
41 1 Ni 58.71 5.63391 2.10074 3.86732 1.57772e-29 -4.45579 0 -186203 -186203 -749213 -2.16093e-10 4.44693e-10 -3.11285e-10
42 1 Ni 58.71 5.63391 0.334152 5.63391 6.9617e-29 -4.45579 0 -186203 -749213 -186203 -6.6704e-11 -9.11621e-10 8.89387e-11
43 1 Ni 58.71 3.86732 2.10074 5.63391 1.57772e-29 -4.45579 0 -749213 -186203 -186203 -6.6704e-11 5.44749e-10 -3.56449e-10
44 2 Al 26.982 7.40049 0.334152 3.86732 2.49477e-28 -5.15854 0 1.12162e+06 1.12162e+06 1.12162e+06 -1.88474e-09 2.79844e-10 2.89051e-10
45 1 Ni 58.71 9.16708 2.10074 3.86732 4.57539e-28 -4.45579 0 -186203 -186203 -749213 1.0214e-10 -1.50084e-09 -1.33408e-10
46 1 Ni 58.71 9.16708 0.334152 5.63391 5.11379e-28 -4.45579 0 -186203 -749213 -186203 1.54531e-09 -8.56035e-10 -1.27849e-10
47 1 Ni 58.71 7.40049 2.10074 5.63391 2.1457e-28 -4.45579 0 -749213 -186203 -186203 4.72487e-11 1.7753e-09 -1.71624e-10
48 2 Al 26.982 10.9337 0.334152 3.86732 9.8016e-29 -5.15854 0 1.12162e+06 1.12162e+06 1.12162e+06 -1.00056e-10 1.37855e-09 1.16732e-10
49 1 Ni 58.71 10.9337 2.10074 5.63391 6.31089e-29 -4.45579 0 -749213 -186203 -186203 2.00112e-10 -8.00448e-10 -1.11173e-10
50 2 Al 26.982 0.334152 3.86732 3.86732 5.06843e-29 -5.15854 0 1.12162e+06 1.12162e+06 1.12162e+06 -2.5014e-10 -2.55699e-10 -5.78101e-10
51 1 Ni 58.71 2.10074 5.63391 3.86732 1.57772e-29 -4.45579 0 -186203 -186203 -749213 -2.82797e-10 -3.77989e-10 3.83548e-10
52 1 Ni 58.71 2.10074 3.86732 5.63391 1.57772e-29 -4.45579 0 -186203 -749213 -186203 -3.00168e-10 -3.44637e-10 3.3352e-10
53 1 Ni 58.71 0.334152 5.63391 5.63391 6.9617e-29 -4.45579 0 -749213 -186203 -186203 -2.33464e-10 -2.11229e-10 -8.68194e-10
54 2 Al 26.982 3.86732 3.86732 3.86732 9.46633e-30 -5.15854 0 1.12162e+06 1.12162e+06 1.12162e+06 -7.93847e-11 -7.96453e-11 -1.38793e-10
55 1 Ni 58.71 5.63391 5.63391 3.86732 2.8399e-29 -4.45579 0 -186203 -186203 -749213 -9.35246e-10 5.55867e-11 -1.11173e-11
56 1 Ni 58.71 5.63391 3.86732 5.63391 2.8399e-29 -4.45579 0 -186203 -749213 -186203 -4.13754e-242 -8.90776e-10 -3.3352e-11
57 1 Ni 58.71 3.86732 5.63391 5.63391 2.8399e-29 -4.45579 0 -749213 -186203 -186203 -5.55867e-11 2.22347e-11 -8.60985e-10
58 2 Al 26.982 7.40049 3.86732 3.86732 2.08259e-28 -5.15854 0 1.12162e+06 1.12162e+06 1.12162e+06 -2.95999e-10 -2.623e-10 -3.78684e-10
59 1 Ni 58.71 9.16708 5.63391 3.86732 4.70161e-28 -4.45579 0 -186203 -186203 -749213 -7.11509e-10 -1.53419e-09 -1.77877e-10
60 1 Ni 58.71 9.16708 3.86732 5.63391 4.70161e-28 -4.45579 0 -186203 -749213 -186203 -1.54531e-09 -7.33744e-10 1.6676e-11
61 1 Ni 58.71 7.40049 5.63391 5.63391 2.27192e-28 -4.45579 0 -749213 -186203 -186203 1.94553e-09 1.94206e-09 -1.06223e-09
62 2 Al 26.982 10.9337 3.86732 3.86732 5.6798e-29 -5.15854 0 1.12162e+06 1.12162e+06 1.12162e+06 1.28961e-09 1.48972e-09 2.22347e-10
63 1 Ni 58.71 10.9337 5.63391 5.63391 7.57306e-29 -4.45579 0 -749213 -186203 -186203 -9.11621e-10 -8.67152e-10 -9.11621e-10
64 2 Al 26.982 0.334152 7.40049 3.86732 2.49477e-28 -5.15854 0 1.12162e+06 1.12162e+06 1.12162e+06 -1.84548e-09 1.55643e-10 2.89051e-10
65 1 Ni 58.71 2.10074 7.40049 5.63391 2.1457e-28 -4.45579 0 -186203 -749213 -186203 -1.44525e-10 -2.55004e-10 1.84548e-09
66 2 Al 26.982 3.86732 7.40049 3.86732 2.08259e-28 -5.15854 0 1.12162e+06 1.12162e+06 1.12162e+06 -1.18122e-10 -2.16093e-10 -2.31119e-10
67 1 Ni 58.71 5.63391 7.40049 5.63391 2.27192e-28 -4.45579 0 -186203 -749213 -186203 1.88995e-09 -9.78325e-10 1.91218e-09
68 2 Al 26.982 7.40049 7.40049 3.86732 4.07052e-28 -5.15854 0 1.12162e+06 1.12162e+06 1.12162e+06 -2.48316e-10 -5.11571e-11 -6.51406e-12
69 1 Ni 58.71 9.16708 7.40049 5.63391 6.68954e-28 -4.45579 0 -186203 -749213 -186203 9.1718e-10 -7.11509e-10 1.61757e-09
70 2 Al 26.982 10.9337 7.40049 3.86732 2.55591e-28 -5.15854 0 1.12162e+06 1.12162e+06 1.12162e+06 -1.61201e-10 1.52307e-09 4.44693e-11
71 2 Al 26.982 0.334152 0.334152 7.40049 2.90695e-28 -5.15854 0 1.12162e+06 1.12162e+06 1.12162e+06 -1.95665e-09 -1.64537e-09 -1.84548e-09
72 1 Ni 58.71 2.10074 2.10074 7.40049 2.01948e-28 -4.45579 0 -186203 -186203 -749213 -3.14759e-10 -1.91079e-10 -4.65538e-11
73 2 Al 26.982 3.86732 0.334152 7.40049 2.49477e-28 -5.15854 0 1.12162e+06 1.12162e+06 1.12162e+06 1.69426e-09 8.59856e-12 -1.82324e-09
74 1 Ni 58.71 5.63391 2.10074 7.40049 2.1457e-28 -4.45579 0 -186203 -186203 -749213 -2.44581e-10 1.70651e-09 -1.61201e-10
75 2 Al 26.982 7.40049 0.334152 7.40049 4.4827e-28 -5.15854 0 1.12162e+06 1.12162e+06 1.12162e+06 -1.88326e-09 -9.00504e-10 -1.91218e-09
76 1 Ni 58.71 9.16708 2.10074 7.40049 6.56332e-28 -4.45579 0 -186203 -186203 -749213 2.88356e-10 9.72072e-10 -9.72767e-11
77 2 Al 26.982 10.9337 0.334152 7.40049 2.96809e-28 -5.15854 0 1.12162e+06 1.12162e+06 1.12162e+06 -5.78101e-10 1.77877e-10 -1.91218e-09
78 2 Al 26.982 0.334152 3.86732 7.40049 2.49477e-28 -5.15854 0 1.12162e+06 1.12162e+06 1.12162e+06 2.22347e-10 -1.82324e-09 2.05758e-10
79 1 Ni 58.71 2.10074 5.63391 7.40049 2.1457e-28 -4.45579 0 -186203 -186203 -749213 -3.11285e-10 -1.11173e-10 1.70651e-09
80 2 Al 26.982 3.86732 3.86732 7.40049 2.08259e-28 -5.15854 0 1.12162e+06 1.12162e+06 1.12162e+06 -2.67771e-10 -1.55382e-10 -1.96117e-10
81 1 Ni 58.71 5.63391 5.63391 7.40049 2.27192e-28 -4.45579 0 -186203 -186203 -749213 -9.67208e-10 1.9233e-09 1.87883e-09
82 2 Al 26.982 7.40049 3.86732 7.40049 4.07052e-28 -5.15854 0 1.12162e+06 1.12162e+06 1.12162e+06 8.44222e-11 -1.73969e-10 1.26894e-10
83 1 Ni 58.71 9.16708 5.63391 7.40049 6.68954e-28 -4.45579 0 -186203 -186203 -749213 -7.11509e-10 8.50476e-10 1.65092e-09
84 2 Al 26.982 10.9337 3.86732 7.40049 2.55591e-28 -5.15854 0 1.12162e+06 1.12162e+06 1.12162e+06 1.26738e-09 -2.66816e-10 1.44525e-10
85 2 Al 26.982 0.334152 7.40049 7.40049 4.4827e-28 -5.15854 0 1.12162e+06 1.12162e+06 1.12162e+06 -1.95665e-09 -1.82324e-09 -7.4903e-10
86 2 Al 26.982 3.86732 7.40049 7.40049 4.07052e-28 -5.15854 0 1.12162e+06 1.12162e+06 1.12162e+06 1.68844e-10 1.43136e-10 -1.11173e-10
87 2 Al 26.982 7.40049 7.40049 7.40049 6.05845e-28 -5.15854 0 1.12162e+06 1.12162e+06 1.12162e+06 -3.59403e-10 -3.63224e-10 -5.33632e-10
88 2 Al 26.982 10.9337 7.40049 7.40049 4.54384e-28 -5.15854 0 1.12162e+06 1.12162e+06 1.12162e+06 -1.77877e-10 -8.89387e-11 -5.57951e-10
89 1 Ni 58.71 2.10074 0.334152 9.16708 4.98757e-28 -4.45579 0 -186203 -749213 -186203 1.6676e-10 -1.11173e-10 5.28073e-10
90 1 Ni 58.71 0.334152 2.10074 9.16708 4.98757e-28 -4.45579 0 -749213 -186203 -186203 4.44693e-11 5.44749e-10 -1.11173e-10
91 1 Ni 58.71 5.63391 0.334152 9.16708 5.11379e-28 -4.45579 0 -186203 -749213 -186203 -2.0984e-10 -8.55513e-10 2.66816e-10
92 1 Ni 58.71 3.86732 2.10074 9.16708 4.57539e-28 -4.45579 0 -749213 -186203 -186203 -1.53558e-10 -1.56754e-09 -2.22347e-11
93 1 Ni 58.71 9.16708 0.334152 9.16708 9.53141e-28 -4.45579 0 -186203 -749213 -186203 1.88995e-09 -3.44637e-10 7.22627e-10
94 1 Ni 58.71 7.40049 2.10074 9.16708 6.56332e-28 -4.45579 0 -749213 -186203 -186203 1.04225e-10 9.00504e-10 -8.89387e-11
95 1 Ni 58.71 10.9337 2.10074 9.16708 5.04871e-28 -4.45579 0 -749213 -186203 -186203 -2.22347e-10 -3.89107e-10 -1.22291e-10
96 1 Ni 58.71 2.10074 3.86732 9.16708 4.57539e-28 -4.45579 0 -186203 -749213 -186203 -3.44637e-10 -4.44693e-11 -1.52863e-09
97 1 Ni 58.71 0.334152 5.63391 9.16708 5.11379e-28 -4.45579 0 -749213 -186203 -186203 -3.3352e-10 4.44693e-10 -9.45842e-10
98 1 Ni 58.71 5.63391 3.86732 9.16708 4.70161e-28 -4.45579 0 -186203 -749213 -186203 2.33464e-10 -9.18222e-10 -1.25626e-09
99 1 Ni 58.71 3.86732 5.63391 9.16708 4.70161e-28 -4.45579 0 -749213 -186203 -186203 1.88995e-10 -1.36743e-09 -7.88723e-10
100 1 Ni 58.71 9.16708 3.86732 9.16708 9.11923e-28 -4.45579 0 -186203 -749213 -186203 -1.61201e-09 -4.87947e-10 -1.5731e-09
101 1 Ni 58.71 7.40049 5.63391 9.16708 6.68954e-28 -4.45579 0 -749213 -186203 -186203 1.64189e-09 8.11565e-10 -7.45382e-10
102 1 Ni 58.71 10.9337 5.63391 9.16708 5.17493e-28 -4.45579 0 -749213 -186203 -186203 -6.6704e-10 -6.11453e-10 -7.28185e-10
103 1 Ni 58.71 2.10074 7.40049 9.16708 6.56332e-28 -4.45579 0 -186203 -749213 -186203 -1.13258e-10 1.33408e-10 9.11621e-10
104 1 Ni 58.71 5.63391 7.40049 9.16708 6.68954e-28 -4.45579 0 -186203 -749213 -186203 1.46749e-09 -7.57021e-10 8.338e-10
105 1 Ni 58.71 9.16708 7.40049 9.16708 1.11072e-27 -4.45579 0 -186203 -749213 -186203 7.96279e-10 -4.82649e-10 7.00392e-10
106 2 Al 26.982 0.334152 0.334152 10.9337 1.39234e-28 -5.15854 0 1.12162e+06 1.12162e+06 1.12162e+06 -1.20067e-09 -4.00224e-10 -5.11397e-10
107 1 Ni 58.71 2.10074 2.10074 10.9337 5.04871e-29 -4.45579 0 -186203 -186203 -749213 -1.0353e-10 -6.6704e-11 -1.77877e-10
108 1 Ni 58.71 2.10074 0.334152 12.7002 9.48605e-29 -4.45579 0 -186203 -749213 -186203 1.6676e-10 -3.77989e-10 -6.44805e-10
109 1 Ni 58.71 0.334152 2.10074 12.7002 9.48605e-29 -4.45579 0 -749213 -186203 -186203 2.22347e-11 -6.6704e-10 -5.0028e-10
110 2 Al 26.982 3.86732 0.334152 10.9337 9.8016e-29 -5.15854 0 1.12162e+06 1.12162e+06 1.12162e+06 1.20006e-09 1.41885e-09 -1.77877e-10
111 1 Ni 58.71 5.63391 2.10074 10.9337 6.31089e-29 -4.45579 0 -186203 -186203 -749213 -1.77877e-10 -9.06063e-10 -1.11173e-10
112 1 Ni 58.71 5.63391 0.334152 12.7002 1.07482e-28 -4.45579 0 -186203 -749213 -186203 -7.22627e-11 9.56091e-10 -3.66872e-10
113 1 Ni 58.71 3.86732 2.10074 12.7002 5.36425e-29 -4.45579 0 -749213 -186203 -186203 -2.09145e-10 -1.66621e-09 -4.89163e-10
114 2 Al 26.982 7.40049 0.334152 10.9337 2.96809e-28 -5.15854 0 1.12162e+06 1.12162e+06 1.12162e+06 -1.5797e-09 -3.30046e-11 -5.78101e-10
115 1 Ni 58.71 9.16708 2.10074 10.9337 5.04871e-28 -4.45579 0 -186203 -186203 -749213 7.57368e-11 -2.89051e-10 -2.22347e-10
116 1 Ni 58.71 9.16708 0.334152 12.7002 5.49244e-28 -4.45579 0 -186203 -749213 -186203 1.53419e-09 -0 -3.44637e-10
117 1 Ni 58.71 7.40049 2.10074 12.7002 2.52435e-28 -4.45579 0 -749213 -186203 -186203 4.86383e-12 2.55699e-10 -4.00224e-10
118 2 Al 26.982 10.9337 0.334152 10.9337 1.45348e-28 -5.15854 0 1.12162e+06 1.12162e+06 1.12162e+06 -4.00224e-10 7.78213e-10 -3.55755e-10
119 1 Ni 58.71 10.9337 2.10074 12.7002 1.00974e-28 -4.45579 0 -749213 -186203 -186203 -1.11173e-10 -8.67152e-10 -4.33576e-10
120 2 Al 26.982 0.334152 3.86732 10.9337 9.8016e-29 -5.15854 0 1.12162e+06 1.12162e+06 1.12162e+06 -4.44693e-11 -1.33408e-10 1.36743e-09
121 1 Ni 58.71 2.10074 5.63391 10.9337 6.31089e-29 -4.45579 0 -186203 -186203 -749213 -1.22291e-10 -1.55643e-10 -1.01168e-09
122 1 Ni 58.71 2.10074 3.86732 12.7002 5.36425e-29 -4.45579 0 -186203 -749213 -186203 -3.11285e-10 -3.89107e-10 -1.81768e-09
123 1 Ni 58.71 0.334152 5.63391 12.7002 1.07482e-28 -4.45579 0 -749213 -186203 -186203 -7.22627e-11 -5.11397e-10 9.11969e-10
124 2 Al 26.982 3.86732 3.86732 10.9337 5.6798e-29 -5.15854 0 1.12162e+06 1.12162e+06 1.12162e+06 3.2744e-11 1.35623e-09 1.46453e-09
125 1 Ni 58.71 5.63391 5.63391 10.9337 7.57306e-29 -4.45579 0 -186203 -186203 -749213 -9.11621e-10 -9.67208e-10 -9.50532e-10
126 1 Ni 58.71 5.63391 3.86732 12.7002 6.62643e-29 -4.45579 0 -186203 -749213 -186203 5.55867e-12 8.338e-10 -1.7343e-09
127 1 Ni 58.71 3.86732 5.63391 12.7002 6.62643e-29 -4.45579 0 -749213 -186203 -186203 2.77933e-11 -1.63842e-09 8.8956e-10
128 2 Al 26.982 7.40049 3.86732 10.9337 2.55591e-28 -5.15854 0 1.12162e+06 1.12162e+06 1.12162e+06 6.21876e-11 -3.08159e-10 1.13006e-09
129 1 Ni 58.71 9.16708 5.63391 10.9337 5.17493e-28 -4.45579 0 -186203 -186203 -749213 -7.55979e-10 -5.11397e-10 -6.61481e-10
130 1 Ni 58.71 9.16708 3.86732 12.7002 5.08026e-28 -4.45579 0 -186203 -749213 -186203 -1.40634e-09 1.36187e-10 -1.49389e-09
131 1 Ni 58.71 7.40049 5.63391 12.7002 2.65057e-28 -4.45579 0 -749213 -186203 -186203 1.7343e-09 2.18178e-10 9.94306e-10
132 2 Al 26.982 10.9337 3.86732 10.9337 1.0413e-28 -5.15854 0 1.12162e+06 1.12162e+06 1.12162e+06 1.33408e-09 1.17844e-09 1.35354e-09
133 1 Ni 58.71 10.9337 5.63391 12.7002 1.13596e-28 -4.45579 0 -749213 -186203 -186203 -9.33856e-10 -1.02279e-09 8.22683e-10
134 2 Al 26.982 0.334152 7.40049 10.9337 2.96809e-28 -5.15854 0 1.12162e+06 1.12162e+06 1.12162e+06 -1.68983e-09 -3.55755e-10 3.3352e-11
135 1 Ni 58.71 2.10074 7.40049 12.7002 2.52435e-28 -4.45579 0 -186203 -749213 -186203 -1.33408e-10 -4.22459e-10 2.85576e-10
136 2 Al 26.982 3.86732 7.40049 10.9337 2.55591e-28 -5.15854 0 1.12162e+06 1.12162e+06 1.12162e+06 -1.19511e-10 1.18295e-09 -2.66816e-10
137 1 Ni 58.71 5.63391 7.40049 12.7002 2.65057e-28 -4.45579 0 -186203 -749213 -186203 1.62313e-09 9.93612e-10 2.80018e-10
138 2 Al 26.982 7.40049 7.40049 10.9337 4.54384e-28 -5.15854 0 1.12162e+06 1.12162e+06 1.12162e+06 -6.56965e-10 -9.22391e-11 -4.44693e-11
139 1 Ni 58.71 9.16708 7.40049 12.7002 7.06819e-28 -4.45579 0 -186203 -749213 -186203 8.51866e-10 1.54253e-10 -2.98083e-10
140 2 Al 26.982 10.9337 7.40049 10.9337 3.02923e-28 -5.15854 0 1.12162e+06 1.12162e+06 1.12162e+06 -1.11173e-11 1.24514e-09 8.89387e-11
141 2 Al 26.982 0.334152 0.334152 14.4668 1.39234e-28 -5.15854 0 1.12162e+06 1.12162e+06 1.12162e+06 -1.33408e-09 -1.72102e-09 -1.65501e-09
142 1 Ni 58.71 2.10074 2.10074 14.4668 5.04871e-29 -4.45579 0 -186203 -186203 -749213 -7.29575e-11 -9.79715e-11 -7.0873e-11
143 1 Ni 58.71 2.10074 0.334152 16.2334 1.86191e-27 -4.45579 0 -186203 -749213 -186203 2.22347e-11 -1.57727e-10 5.78101e-10
144 1 Ni 58.71 0.334152 2.10074 16.2334 1.86191e-27 -4.45579 0 -749213 -186203 -186203 4.44693e-11 7.55979e-10 -2.98778e-11
145 2 Al 26.982 3.86732 0.334152 14.4668 9.8016e-29 -5.15854 0 1.12162e+06 1.12162e+06 1.12162e+06 1.33078e-09 1.66213e-09 -1.56772e-09
146 1 Ni 58.71 5.63391 2.10074 14.4668 6.31089e-29 -4.45579 0 -186203 -186203 -749213 -7.22627e-11 1.16732e-10 -4.79435e-11
147 1 Ni 58.71 5.63391 0.334152 16.2334 1.87453e-27 -4.45579 0 -186203 -749213 -186203 2.22347e-11 -8.89387e-11 9.33856e-10
148 1 Ni 58.71 3.86732 2.10074 16.2334 1.82069e-27 -4.45579 0 -749213 -186203 -186203 -5.55867e-12 -4.03003e-11 1.63286e-10
149 2 Al 26.982 7.40049 0.334152 14.4668 2.96809e-28 -5.15854 0 1.12162e+06 1.12162e+06 1.12162e+06 -1.64276e-09 -3.48111e-10 -1.45776e-09
150 1 Ni 58.71 9.16708 2.10074 14.4668 5.04871e-28 -4.45579 0 -186203 -186203 -749213 1.09784e-10 -1.77877e-10 2.43192e-11
151 1 Ni 58.71 9.16708 0.334152 16.2334 2.31629e-27 -4.45579 0 -186203 -749213 -186203 1.55643e-09 9.24128e-10 9.00504e-10
152 1 Ni 58.71 7.40049 2.10074 16.2334 2.01948e-27 -4.45579 0 -749213 -186203 -186203 4.44693e-11 -1.70651e-09 1.11173e-10
153 2 Al 26.982 10.9337 0.334152 14.4668 1.45348e-28 -5.15854 0 1.12162e+06 1.12162e+06 1.12162e+06 -3.11285e-10 -6.72599e-10 -1.37855e-09
154 1 Ni 58.71 10.9337 2.10074 16.2334 1.86802e-27 -4.45579 0 -749213 -186203 -186203 -0 6.22571e-10 -4.37745e-11
155 2 Al 26.982 0.334152 3.86732 14.4668 9.8016e-29 -5.15854 0 1.12162e+06 1.12162e+06 1.12162e+06 -3.89107e-11 -1.6009e-09 1.75654e-09
156 1 Ni 58.71 2.10074 5.63391 14.4668 6.31089e-29 -4.45579 0 -186203 -186203 -749213 -1.05615e-10 -1.36882e-10 1.33408e-10
157 1 Ni 58.71 2.10074 3.86732 16.2334 1.82069e-27 -4.45579 0 -186203 -749213 -186203 -2.00112e-10 -4.44693e-11 9.86663e-11
158 1 Ni 58.71 0.334152 5.63391 16.2334 1.87453e-27 -4.45579 0 -749213 -186203 -186203 -1.77877e-10 1.04503e-09 -1.6676e-10
159 2 Al 26.982 3.86732 3.86732 14.4668 5.6798e-29 -5.15854 0 1.12162e+06 1.12162e+06 1.12162e+06 -3.40468e-11 1.64233e-09 1.64259e-09
160 1 Ni 58.71 5.63391 5.63391 14.4668 7.57306e-29 -4.45579 0 -186203 -186203 -749213 -6.55923e-10 1.33408e-10 1.77877e-10
161 1 Ni 58.71 5.63391 3.86732 16.2334 1.83331e-27 -4.45579 0 -186203 -749213 -186203 1.77877e-10 -2.22347e-10 -1.11173e-10
162 1 Ni 58.71 3.86732 5.63391 16.2334 1.83331e-27 -4.45579 0 -749213 -186203 -186203 1.22291e-10 -2.44581e-10 -2.55699e-10
163 2 Al 26.982 7.40049 3.86732 14.4668 2.55591e-28 -5.15854 0 1.12162e+06 1.12162e+06 1.12162e+06 1.49389e-10 -5.28594e-10 1.44994e-09
164 1 Ni 58.71 9.16708 5.63391 14.4668 5.17493e-28 -4.45579 0 -186203 -186203 -749213 -1.01168e-09 4.44693e-11 4.44693e-11
165 1 Ni 58.71 9.16708 3.86732 16.2334 2.27507e-27 -4.45579 0 -186203 -749213 -186203 -1.6009e-09 7.48335e-10 1.00056e-10
166 1 Ni 58.71 7.40049 5.63391 16.2334 2.03211e-27 -4.45579 0 -749213 -186203 -186203 1.6009e-09 -1.82324e-09 -3.72431e-10
167 2 Al 26.982 10.9337 3.86732 14.4668 1.0413e-28 -5.15854 0 1.12162e+06 1.12162e+06 1.12162e+06 1.11173e-09 -6.44805e-10 1.38819e-09
168 1 Ni 58.71 10.9337 5.63391 16.2334 1.88064e-27 -4.45579 0 -749213 -186203 -186203 -7.89331e-10 7.00392e-10 -1.77877e-10
169 2 Al 26.982 0.334152 7.40049 14.4668 2.96809e-28 -5.15854 0 1.12162e+06 1.12162e+06 1.12162e+06 -1.75654e-09 -1.63425e-09 -3.3352e-10
170 1 Ni 58.71 2.10074 7.40049 16.2334 2.01948e-27 -4.45579 0 -186203 -749213 -186203 -1.33408e-10 -1.04225e-11 -1.97055e-09
171 2 Al 26.982 3.86732 7.40049 14.4668 2.55591e-28 -5.15854 0 1.12162e+06 1.12162e+06 1.12162e+06 3.09201e-11 1.47973e-09 -4.89163e-10
172 1 Ni 58.71 5.63391 7.40049 16.2334 2.03211e-27 -4.45579 0 -186203 -749213 -186203 1.37855e-09 -1.44525e-10 -1.71346e-09
173 2 Al 26.982 7.40049 7.40049 14.4668 4.54384e-28 -5.15854 0 1.12162e+06 1.12162e+06 1.12162e+06 -9.23433e-10 -3.21968e-10 -4.00224e-10
174 1 Ni 58.71 9.16708 7.40049 16.2334 2.47387e-27 -4.45579 0 -186203 -749213 -186203 1.00751e-09 8.38664e-10 -1.60784e-09
175 2 Al 26.982 10.9337 7.40049 14.4668 3.02923e-28 -5.15854 0 1.12162e+06 1.12162e+06 1.12162e+06 1.33408e-10 -9.78325e-10 -2.33464e-10
176 2 Al 26.982 0.334152 0.334152 18 3.31992e-27 -5.15854 0 1.12162e+06 1.12162e+06 1.12162e+06 -1.35076e-09 -9.33856e-10 -9.06063e-10
177 1 Ni 58.71 2.10074 2.10074 18 3.23117e-27 -4.45579 0 -186203 -186203 -749213 8.96335e-11 -6.6704e-11 -6.11453e-11
178 1 Ni 58.71 2.10074 0.334152 19.7666 1.86191e-27 -4.45579 0 -186203 -749213 -186203 1.77877e-10 1.11173e-11 -8.94945e-10
179 1 Ni 58.71 0.334152 2.10074 19.7666 1.86191e-27 -4.45579 0 -749213 -186203 -186203 1.22291e-10 -1.02279e-09 -6.6704e-11
180 2 Al 26.982 3.86732 0.334152 18 3.2787e-27 -5.15854 0 1.12162e+06 1.12162e+06 1.12162e+06 1.79684e-09 -1.46202e-09 -1.04503e-09
181 1 Ni 58.71 5.63391 2.10074 18 3.2438e-27 -4.45579 0 -186203 -186203 -749213 -1.31323e-10 7.5042e-10 -2.44581e-10
182 1 Ni 58.71 5.63391 0.334152 19.7666 1.87453e-27 -4.45579 0 -186203 -749213 -186203 -1.33408e-10 -1.3452e-09 -8.44917e-10
183 1 Ni 58.71 3.86732 2.10074 19.7666 1.82069e-27 -4.45579 0 -749213 -186203 -186203 -2.48055e-10 1.76557e-09 -2.66816e-10
184 2 Al 26.982 7.40049 0.334152 18 3.4775e-27 -5.15854 0 1.12162e+06 1.12162e+06 1.12162e+06 -1.93772e-09 1.45107e-09 -1.24514e-09
185 1 Ni 58.71 9.16708 2.10074 18 3.68556e-27 -4.45579 0 -186203 -186203 -749213 -7.5042e-11 -1.63425e-09 -1.11173e-10
186 1 Ni 58.71 9.16708 0.334152 19.7666 2.31629e-27 -4.45579 0 -186203 -749213 -186203 1.78989e-09 7.44861e-10 -7.39303e-10
187 1 Ni 58.71 7.40049 2.10074 19.7666 2.01948e-27 -4.45579 0 -749213 -186203 -186203 -3.89107e-11 4.06477e-10 -2.00112e-10
188 2 Al 26.982 10.9337 0.334152 18 3.32603e-27 -5.15854 0 1.12162e+06 1.12162e+06 1.12162e+06 -2.44581e-10 1.11173e-10 -9.22739e-10
189 1 Ni 58.71 10.9337 2.10074 19.7666 1.86802e-27 -4.45579 0 -749213 -186203 -186203 -4.44693e-11 -8.83828e-10 -1.44525e-10
190 2 Al 26.982 0.334152 3.86732 18 3.2787e-27 -5.15854 0 1.12162e+06 1.12162e+06 1.12162e+06 2.83492e-10 -9.00504e-10 -1.55643e-09
191 1 Ni 58.71 2.10074 5.63391 18 3.2438e-27 -4.45579 0 -186203 -186203 -749213 -8.66805e-11 -1.55643e-10 7.5042e-10
192 1 Ni 58.71 2.10074 3.86732 19.7666 1.82069e-27 -4.45579 0 -186203 -749213 -186203 -2.66816e-10 -2.44581e-10 1.82324e-09
193 1 Ni 58.71 0.334152 5.63391 19.7666 1.87453e-27 -4.45579 0 -749213 -186203 -186203 -1.6676e-10 -8.22683e-10 -1.36318e-09
194 2 Al 26.982 3.86732 3.86732 18 3.23749e-27 -5.15854 0 1.12162e+06 1.12162e+06 1.12162e+06 -6.41679e-10 -1.43162e-09 -1.36491e-09
195 1 Ni 58.71 5.63391 5.63391 18 3.25642e-27 -4.45579 0 -186203 -186203 -749213 -8.90776e-10 8.11565e-10 9.00504e-10
196 1 Ni 58.71 5.63391 3.86732 19.7666 1.83331e-27 -4.45579 0 -186203 -749213 -186203 1.22291e-10 -1.54531e-09 1.9233e-09
197 1 Ni 58.71 3.86732 5.63391 19.7666 1.83331e-27 -4.45579 0 -749213 -186203 -186203 1.55643e-10 1.84339e-09 -1.42189e-09
198 2 Al 26.982 7.40049 3.86732 18 3.43628e-27 -5.15854 0 1.12162e+06 1.12162e+06 1.12162e+06 -3.74341e-11 1.17748e-09 -1.15863e-09
199 1 Ni 58.71 9.16708 5.63391 18 3.69818e-27 -4.45579 0 -186203 -186203 -749213 -9.67208e-10 -1.63425e-09 7.72655e-10
200 1 Ni 58.71 9.16708 3.86732 19.7666 2.27507e-27 -4.45579 0 -186203 -749213 -186203 -1.79545e-09 7.55979e-10 1.55643e-09
201 1 Ni 58.71 7.40049 5.63391 19.7666 2.03211e-27 -4.45579 0 -749213 -186203 -186203 1.63981e-09 1.93858e-10 -1.43709e-09
202 2 Al 26.982 10.9337 3.86732 18 3.28482e-27 -5.15854 0 1.12162e+06 1.12162e+06 1.12162e+06 1.1562e-09 3.3352e-10 -1.13397e-09
203 1 Ni 58.71 10.9337 5.63391 19.7666 1.88064e-27 -4.45579 0 -749213 -186203 -186203 -5.33632e-10 -7.11509e-10 -1.42302e-09
204 2 Al 26.982 0.334152 7.40049 18 3.4775e-27 -5.15854 0 1.12162e+06 1.12162e+06 1.12162e+06 -1.84548e-09 -1.17844e-09 1.27849e-09
205 1 Ni 58.71 2.10074 7.40049 19.7666 2.01948e-27 -4.45579 0 -186203 -749213 -186203 -2.16788e-10 -2.33464e-10 4.55811e-10
206 2 Al 26.982 3.86732 7.40049 18 3.43628e-27 -5.15854 0 1.12162e+06 1.12162e+06 1.12162e+06 1.13171e-10 -1.18426e-09 1.49502e-09
207 1 Ni 58.71 5.63391 7.40049 19.7666 2.03211e-27 -4.45579 0 -186203 -749213 -186203 1.6009e-09 -1.36865e-09 1.33408e-10
208 2 Al 26.982 7.40049 7.40049 18 3.63507e-27 -5.15854 0 1.12162e+06 1.12162e+06 1.12162e+06 -9.86663e-11 1.40339e-09 1.42588e-09
209 1 Ni 58.71 9.16708 7.40049 19.7666 2.47387e-27 -4.45579 0 -186203 -749213 -186203 9.35246e-10 6.44805e-10 -2.77933e-11
210 2 Al 26.982 10.9337 7.40049 18 3.48361e-27 -5.15854 0 1.12162e+06 1.12162e+06 1.12162e+06 -2.22347e-10 4.89163e-10 1.32296e-09
211 2 Al 26.982 0.334152 0.334152 21.5332 1.90628e-27 -5.15854 0 1.12162e+06 1.12162e+06 1.12162e+06 -1.90106e-09 -7.78213e-10 -8.44917e-10
212 1 Ni 58.71 2.10074 2.10074 21.5332 1.81754e-27 -4.45579 0 -186203 -186203 -749213 -1.76488e-10 -3.55755e-10 -3.66872e-10
213 1 Ni 58.71 2.10074 0.334152 23.2998 3.27555e-27 -4.45579 0 -186203 -749213 -186203 -4.44693e-11 -2.32074e-10 -8.06007e-10
214 1 Ni 58.71 0.334152 2.10074 23.2998 3.27555e-27 -4.45579 0 -749213 -186203 -186203 3.3352e-11 -7.11509e-10 -2.44581e-10
215 2 Al 26.982 3.86732 0.334152 21.5332 1.86506e-27 -5.15854 0 1.12162e+06 1.12162e+06 1.12162e+06 1.74464e-09 -1.60315e-09 -6.6704e-10
216 1 Ni 58.71 5.63391 2.10074 21.5332 1.83016e-27 -4.45579 0 -186203 -186203 -749213 1.18122e-11 1.65648e-09 -2.00112e-10
217 1 Ni 58.71 5.63391 0.334152 23.2998 3.28817e-27 -4.45579 0 -186203 -749213 -186203 -4.44693e-10 -1.02775e-09 -4.44693e-10
218 1 Ni 58.71 3.86732 2.10074 23.2998 3.23433e-27 -4.45579 0 -749213 -186203 -186203 5.55867e-11 1.60993e-09 1.01446e-10
219 2 Al 26.982 7.40049 0.334152 21.5332 2.06386e-27 -5.15854 0 1.12162e+06 1.12162e+06 1.12162e+06 -1.5678e-09 8.96335e-11 -9.56091e-10
220 1 Ni 58.71 9.16708 2.10074 21.5332 2.27192e-27 -4.45579 0 -186203 -186203 -749213 -1.52863e-11 -3.46722e-10 -3.11285e-10
221 1 Ni 58.71 9.16708 0.334152 23.2998 3.72993e-27 -4.45579 0 -186203 -749213 -186203 1.7343e-09 1.67872e-09 -8.83828e-10
222 1 Ni 58.71 7.40049 2.10074 23.2998 3.43312e-27 -4.45579 0 -749213 -186203 -186203 -5.0028e-11 -1.67524e-09 -1.00056e-10
223 2 Al 26.982 10.9337 0.334152 21.5332 1.9124e-27 -5.15854 0 1.12162e+06 1.12162e+06 1.12162e+06 -6.17012e-10 5.55867e-10 -1.20067e-09
224 1 Ni 58.71 10.9337 2.10074 23.2998 3.28166e-27 -4.45579 0 -749213 -186203 -186203 -0 5.55867e-12 -2.11229e-10
225 2 Al 26.982 0.334152 3.86732 21.5332 1.86506e-27 -5.15854 0 1.12162e+06 1.12162e+06 1.12162e+06 4.33576e-10 -6.44805e-10 -1.55643e-09
226 1 Ni 58.71 2.10074 5.63391 21.5332 1.83016e-27 -4.45579 0 -186203 -186203 -749213 4.86383e-12 -2.22347e-10 1.73361e-09
227 1 Ni 58.71 2.10074 3.86732 23.2998 3.23433e-27 -4.45579 0 -186203 -749213 -186203 -1.22291e-10 1.22291e-10 1.69539e-09
228 1 Ni 58.71 0.334152 5.63391 23.2998 3.28817e-27 -4.45579 0 -749213 -186203 -186203 -3.44637e-10 -8.00448e-10 -9.05715e-10
229 2 Al 26.982 3.86732 3.86732 21.5332 1.82385e-27 -5.15854 0 1.12162e+06 1.12162e+06 1.12162e+06 -4.70142e-10 -1.8671e-09 -1.77434e-09
230 1 Ni 58.71 5.63391 5.63391 21.5332 1.84278e-27 -4.45579 0 -186203 -186203 -749213 -7.05951e-10 1.88995e-09 1.80101e-09
231 1 Ni 58.71 5.63391 3.86732 23.2998 3.24695e-27 -4.45579 0 -186203 -749213 -186203 4.78045e-10 -1.15551e-09 1.62313e-09
232 1 Ni 58.71 3.86732 5.63391 23.2998 3.24695e-27 -4.45579 0 -749213 -186203 -186203 3.22403e-10 1.54878e-09 -1.11842e-09
233 2 Al 26.982 7.40049 3.86732 21.5332 2.02264e-27 -5.15854 0 1.12162e+06 1.12162e+06 1.12162e+06 2.74112e-10 -2.41107e-10 -1.35831e-09