LAMMPS (2 Aug 2023 - Update 3)
# Homogenization, aging and calcul-ate ordering in MoTa alloys
# potential: tabGAP overlay with EAM for MoNbTaWV
#
# Annie Barnett Sept 2024 (NRL)
# A2 regime for this alloy is 572-3000K
# B2 regime for this alloy is 0-500K
# A2 + B2 for this alloy is 500-572K
################################################################################
#---------------------------- Simulation Setup --------------------------------#
################################################################################

#--- Initialization ---#
units           metal
#dimension       3
#boundary        p p p
#atom_style      atomic

read_restart ./restart.500000
Reading restart file ...
  restart file = 2 Aug 2023, LAMMPS = 2 Aug 2023
  restoring atom style atomic from restart
  orthogonal box = (-85.833207 -85.829929 -85.822202) to (85.833207 85.829929 85.822202)
  8 by 6 by 5 MPI processor grid
  pair style hybrid/overlay stores no restart info
  314928 atoms
  read_restart CPU = 21.105 seconds

#--- Variables1 ---#
variable        time_tot        equal "(dt*step)/1000" #nanoseconds
variable        composition     string MoTa
variable        Temp_aging      equal 573.15   #300C
variable        latparam        equal 3.31
variable 	seed 		equal 	floor(random(1,1000000,12345))

#--- Create Lattice ---#
#lattice        bcc ${latparam} orient x 1 0 0 orient y 0 1 0 orient z 0 0 1
#region         whole block -27 27 -27 27 -27 27 units lattice
#create_box     5 whole
#create_atoms   1 box

#set type 1 type/ratio 3 0.050 73932

mass 1 95.95    #Mo
mass 2 92.90637 #Nb
mass 3 180.94788 #Ta
mass 4 50.9415 #V
mass 5 183.84   #W

#--- Interactions ---#
pair_style hybrid/overlay tabgap eam/fs
pair_coeff * * tabgap /home/abarne65/scratch16-mfalk1/annie/defects/Mo-Nb-Ta-V-W.tabgap Mo Nb Ta V W no yes
Reading tabgap potential file /home/abarne65/scratch16-mfalk1/annie/defects/Mo-Nb-Ta-V-W.tabgap with DATE: 2021-10-10
pair_coeff * * eam/fs /home/abarne65/scratch16-mfalk1/annie/defects/Mo-Nb-Ta-V-W.eam.fs Mo Nb Ta V W
Reading eam/fs potential file /home/abarne65/scratch16-mfalk1/annie/defects/Mo-Nb-Ta-V-W.eam.fs with DATE: 2021-10-10

#reset_timestep 0
timestep .002 #picoseconds

#--- Neighbor Cuttoff ---#
neighbor 2.0 bin
neigh_modify delay 10 every 1 check yes

#--- Computes ---#
compute potEnergy all pe/atom
compute eatoms all reduce sum c_potEnergy
compute kinEnergy all ke/atom
compute csym all centro/atom bcc                #centrosymmetry parameter

compute sigma all stress/atom NULL virial       #per atom stress tensor (symmetric, 6 components below)
compute aveSigma1 all reduce sum c_sigma[1]     #xx
compute aveSigma2 all reduce sum c_sigma[2]     #yy
compute aveSigma3 all reduce sum c_sigma[3]     #zz
compute aveSigma4 all reduce sum c_sigma[4]     #xy
compute aveSigma5 all reduce sum c_sigma[5]     #xz
compute aveSigma6 all reduce sum c_sigma[6]     #yz

################################################################################
#---------------------------------- Aging -------------------------------------#
################################################################################
#--- MC/MD ---#
thermo 10
thermo_style custom step temp atoms c_eatoms v_time_tot ke etotal press vol lx ly lz

dump d2 all custom 10000 ${composition}-${Temp_aging}_mcmd.*.dump id type element mass x y z c_csym c_potEnergy c_kinEnergy c_sigma[1] c_sigma[2] c_sigma[3] c_sigma[4] c_sigma[5] c_sigma[6]
dump d2 all custom 10000 MoTa-${Temp_aging}_mcmd.*.dump id type element mass x y z c_csym c_potEnergy c_kinEnergy c_sigma[1] c_sigma[2] c_sigma[3] c_sigma[4] c_sigma[5] c_sigma[6]
dump d2 all custom 10000 MoTa-573.15_mcmd.*.dump id type element mass x y z c_csym c_potEnergy c_kinEnergy c_sigma[1] c_sigma[2] c_sigma[3] c_sigma[4] c_sigma[5] c_sigma[6]
dump_modify d2 element Mo Nb Ta V W
dump_modify d2 sort id

velocity all create ${Temp_aging} 8837211 mom yes rot yes dist gaussian
velocity all create 573.15 8837211 mom yes rot yes dist gaussian

fix age all npt temp ${Temp_aging} ${Temp_aging} $(100*dt) aniso 0.0 0.0 $(1000*dt)
fix age all npt temp 573.15 ${Temp_aging} $(100*dt) aniso 0.0 0.0 $(1000*dt)
fix age all npt temp 573.15 573.15 $(100*dt) aniso 0.0 0.0 $(1000*dt)
fix age all npt temp 573.15 573.15 0.2000000000000000111 aniso 0.0 0.0 $(1000*dt)
fix age all npt temp 573.15 573.15 0.2000000000000000111 aniso 0.0 0.0 2

variable nswaps equal 150
variable steps equal 500
variable MC_steps equal 25
variable steps_per_loop equal 500
variable total_steps equal 10000000
variable iter equal ${total_steps}/${steps_per_loop}
variable iter equal 10000000/${steps_per_loop}
variable iter equal 10000000/500
variable loopmdmc_counter loop ${iter}
variable loopmdmc_counter loop 20000

#----------------------- Randomized pair swap definitions ----------------------#
label loop_mdmc
print "#### Begin MC ####"
#### Begin MC ####

run ${steps}
run 500
Unused restart file global fix info:
  fix style: atom/swap, fix ID: swaprand
Neighbor list info ...
  update: every = 1 steps, delay = 10 steps, check = yes
  max neighbors/atom: 2000, page size: 100000
  master list distance cutoff = 7
  ghost atom cutoff = 7
  binsize = 3.5, bins = 50 50 50
  3 neighbor lists, perpetual/occasional/extra = 2 1 0
  (1) pair tabgap, perpetual
      attributes: full, newton on, cut 6.1
      pair build: full/bin/atomonly
      stencil: full/bin/3d
      bin: standard
  (2) pair eam/fs, perpetual
      attributes: half, newton on
      pair build: half/bin/atomonly/newton
      stencil: half/bin/3d
      bin: standard
  (3) compute centro/atom, occasional
      attributes: full, newton on
      pair build: full/bin/atomonly
      stencil: full/bin/3d
      bin: standard
Per MPI rank memory allocation (min/avg/max) = 7.375 | 7.398 | 7.406 Mbytes
   Step          Temp         Atoms       c_eatoms      v_time_tot       KinEng         TotEng         Press          Volume           Lx             Ly             Lz      
    500000   573.15            314928  -3441727.4      1              23331.509     -3418395.9     -16.018635      5058057.1      171.66641      171.65986      171.6444     
    500010   572.47584         314928  -3441699.8      1.00002        23304.066     -3418395.8      24.998308      5058056.6      171.66614      171.65977      171.64475    
    500020   573.0141          314928  -3441721.2      1.00004        23325.977     -3418395.2      13.11591       5058062.3      171.66547      171.65957      171.64581    
    500030   574.22345         314928  -3441769.9      1.00006        23375.207     -3418394.7     -48.113664      5058070.4      171.66442      171.65924      171.64746    
    500040   573.34999         314928  -3441734.4      1.00008        23339.65      -3418394.8     -17.932566      5058066.4      171.66282      171.65869      171.64948    
    500050   571.94138         314928  -3441677.2      1.0001         23282.309     -3418394.9      51.917101      5058058.1      171.66078      171.65808      171.65185    
    500060   572.98902         314928  -3441719.3      1.00012        23324.956     -3418394.4      8.7292871      5058062.4      171.65856      171.65763      171.65466    
    500070   574.64605         314928  -3441786.2      1.00014        23392.41      -3418393.8     -55.374789      5058068.9      171.65622      171.65719      171.65766    
    500080   573.7916          314928  -3441751.6      1.00016        23357.627     -3418394       -8.6816909      5058061.6      171.65378      171.65654      171.66051    
    500090   572.05716         314928  -3441681.7      1.00018        23287.022     -3418394.7      49.775844      5058051.8      171.65149      171.65585      171.66315    
    500100   572.62061         314928  -3441704.9      1.0002         23309.959     -3418394.9      6.2445787      5058054.2      171.64954      171.6554       171.66563    
    500110   573.49212         314928  -3441740.1      1.00022        23345.436     -3418394.7     -26.254634      5058059        171.64791      171.65513      171.6677     
    500120   573.07467         314928  -3441722.9      1.00024        23328.443     -3418394.5      9.1740664      5058057.6      171.64664      171.65493      171.66912    
    500130   572.95509         314928  -3441717.9      1.00026        23323.575     -3418394.3      20.368118      5058058.4      171.64595      171.6549       171.66987    
    500140   573.0279          314928  -3441720.5      1.00028        23326.539     -3418393.9      2.2650885      5058064.6      171.6459       171.65507      171.66996    
    500150   572.96689         314928  -3441717.4      1.0003         23324.055     -3418393.3      0.99655872     5058072        171.64643      171.65537      171.66938    
    500160   573.32178         314928  -3441731        1.00032        23338.502     -3418392.5     -8.4512309      5058079.5      171.64748      171.65577      171.66818    
    500170   573.55755         314928  -3441739.8      1.00034        23348.1       -3418391.7     -23.590146      5058084.2      171.64901      171.65622      171.66636    
    500180   573.54114         314928  -3441738.4      1.00036        23347.432     -3418391       -28.731379      5058081.9      171.65091      171.65669      171.66392    
    500190   572.96095         314928  -3441714.2      1.00038        23323.814     -3418390.4     -10.865164      5058071.3      171.65305      171.65712      171.66099    
    500200   572.62903         314928  -3441699.9      1.0004         23310.302     -3418389.6     -0.40648002     5058057.1      171.65535      171.65752      171.6578     
    500210   573.45624         314928  -3441732.4      1.00042        23343.975     -3418388.4     -2.5176835      5058042.4      171.65773      171.65793      171.65451    
    500220   573.98921         314928  -3441752.9      1.00044        23365.671     -3418387.2      11.618444      5058027.2      171.66         171.65838      171.65128    
    500230   573.33431         314928  -3441725.4      1.00046        23339.012     -3418386.4      32.891218      5058015.9      171.66207      171.6588       171.64841    
    500240   572.97127         314928  -3441709.9      1.00048        23324.234     -3418385.7      27.519527      5058013.8      171.66397      171.65909      171.64615    
    500250   572.99461         314928  -3441710        1.0005         23325.184     -3418384.8      26.585541      5058020.3      171.66563      171.65923      171.64457    
    500260   573.10384         314928  -3441713.3      1.00052        23329.63      -3418383.7      37.707691      5058035.6      171.66693      171.6593       171.64371    
    500270   573.76653         314928  -3441739.1      1.00054        23356.606     -3418382.5     -1.570896       5058061        171.66786      171.65934      171.64362    
    500280   573.76793         314928  -3441738.4      1.00056        23356.663     -3418381.7     -34.821921      5058086.3      171.66823      171.65925      171.64419    
    500290   572.49329         314928  -3441686        1.00058        23304.776     -3418381.2      4.2585787      5058103.1      171.6679       171.65893      171.64541    
    500300   572.26322         314928  -3441675.6      1.0006         23295.41      -3418380.2      26.297124      5058120.8      171.66698      171.65848      171.64737    
    500310   573.88299         314928  -3441739.9      1.00062        23361.347     -3418378.6     -30.036735      5058144.4      171.66558      171.65807      171.65       
    500320   574.81873         314928  -3441776.8      1.00064        23399.439     -3418377.4     -81.377259      5058159.2      171.66361      171.65755      171.65298    
    500330   574.1584          314928  -3441749.9      1.00066        23372.559     -3418377.3     -67.146136      5058150.7      171.66109      171.65678      171.65598    
    500340   573.07779         314928  -3441706.6      1.00068        23328.57      -3418378       -14.291744      5058122.3      171.65822      171.65586      171.6588     
    500350   572.72186         314928  -3441692.9      1.0007         23314.081     -3418378.9      27.21165       5058088.9      171.65529      171.65502      171.66144    
    500360   573.02006         314928  -3441705.7      1.00072        23326.22      -3418379.5      33.69771       5058062.6      171.65253      171.65447      171.66386    
    500370   573.0956          314928  -3441709.2      1.00074        23329.295     -3418379.9      31.943602      5058046.6      171.65007      171.65425      171.66599    
    500380   573.53784         314928  -3441727.7      1.00076        23347.297     -3418380.4      9.3712372      5058039.8      171.64807      171.65432      171.66769    
    500390   574.19628         314928  -3441755.4      1.00078        23374.101     -3418381.3     -7.5140173      5058036        171.64659      171.6546       171.66877    
    500400   573.86137         314928  -3441743.5      1.0008         23360.467     -3418383.1      10.319966      5058030.7      171.64565      171.65501      171.66912    
    500410   573.05265         314928  -3441713.1      1.00082        23327.546     -3418385.5      35.30965       5058028.7      171.64536      171.65556      171.66879    
    500420   572.7302          314928  -3441702.5      1.00084        23314.42      -3418388.1      34.167855      5058036.8      171.64582      171.65626      171.6679     
    500430   572.83949         314928  -3441709.5      1.00086        23318.869     -3418390.6      16.422596      5058055.2      171.64699      171.6571       171.66652    
    500440   573.20354         314928  -3441726.7      1.00088        23333.689     -3418393       -7.8984657      5058078.6      171.64875      171.65794      171.66471    
    500450   573.78929         314928  -3441753.3      1.0009         23357.533     -3418395.7     -33.850229      5058099.7      171.65097      171.65861      171.66255    
    500460   573.47655         314928  -3441743.9      1.00092        23344.802     -3418399.1     -28.427926      5058111.5      171.65346      171.65898      171.66008    
    500470   572.91401         314928  -3441724.8      1.00094        23321.902     -3418402.9     -30.328448      5058114.4      171.65612      171.65907      171.65743    
    500480   573.00639         314928  -3441732.5      1.00096        23325.663     -3418406.9     -50.548328      5058107.1      171.65879      171.65892      171.65466    
    500490   572.7748          314928  -3441727.2      1.00098        23316.236     -3418411       -27.239652      5058085.5      171.66122      171.6585       171.65192    
    500500   572.22485         314928  -3441708.8      1.001          23293.849     -3418414.9      18.120716      5058055.9      171.66331      171.65787      171.64946    
Loop time of 352.652 on 240 procs for 500 steps with 314928 atoms

Performance: 0.245 ns/day, 97.959 hours/ns, 1.418 timesteps/s, 446.514 katom-step/s
94.4% CPU use with 240 MPI tasks x no OpenMP threads

MPI task timing breakdown:
Section |  min time  |  avg time  |  max time  |%varavg| %total
---------------------------------------------------------------
Pair    | 16.955     | 97.14      | 137.96     | 435.3 | 27.55
Neigh   | 0          | 0          | 0          |   0.0 |  0.00
Comm    | 27.556     | 80.931     | 132.71     | 299.4 | 22.95
Output  | 14.186     | 14.371     | 14.549     |   1.2 |  4.08
Modify  | 108.65     | 142.79     | 199.96     | 246.4 | 40.49
Other   |            | 17.42      |            |       |  4.94

Nlocal:         1312.2 ave        1394 max        1218 min
Histogram: 35 13 0 55 17 18 30 0 4 68
Nghost:        3296.97 ave        3585 max        3062 min
Histogram: 72 0 0 25 23 65 7 0 3 45
Neighs:        56089.7 ave       59950 max       51674 min
Histogram: 19 25 4 36 40 21 21 2 36 36
FullNghs:      76142.2 ave       80873 max       70673 min
Histogram: 35 13 0 55 17 18 30 0 4 68

Total # of neighbors = 18274126
Ave neighs/atom = 58.026362
Neighbor list builds = 0
Dangerous builds = 0
unfix age

variable swap_counter loop ${steps_per_loop}
variable swap_counter loop 500
label loop_swap
  restart 100000 restart.*
  variable seed equal floor(random(1,1000000,12345))

  variable t1 equal 1
  variable t2 equal 3

  print "t1: ${t1}"
t1: 1
  print "t2: ${t2}"
t2: 3

  fix swaprand all atom/swap ${MC_steps} ${nswaps} ${seed} ${Temp_aging} types ${t1} ${t2}
  fix swaprand all atom/swap 25 ${nswaps} ${seed} ${Temp_aging} types ${t1} ${t2}
  fix swaprand all atom/swap 25 150 ${seed} ${Temp_aging} types ${t1} ${t2}
  fix swaprand all atom/swap 25 150 869953 ${Temp_aging} types ${t1} ${t2}
  fix swaprand all atom/swap 25 150 869953 573.15 types ${t1} ${t2}
  fix swaprand all atom/swap 25 150 869953 573.15 types 1 ${t2}
  fix swaprand all atom/swap 25 150 869953 573.15 types 1 3
  thermo 50
  thermo_style custom step temp atoms c_eatoms v_time_tot ke etotal press vol lx ly lz f_swaprand[1] f_swaprand[2]
  run ${steps}
  run 500
WARNING: No fixes with time integration, atoms won't move (../verlet.cpp:60)
Per MPI rank memory allocation (min/avg/max) = 10.52 | 10.57 | 10.62 Mbytes
   Step          Temp         Atoms       c_eatoms      v_time_tot       KinEng         TotEng         Press          Volume           Lx             Ly             Lz       f_swaprand[1]  f_swaprand[2] 
    500500   572.22485         314928  -3441708.8      1.001          23293.849     -3418414.9      18.120716      5058055.9      171.66331      171.65787      171.64946      0              0            
    500550   572.22485         314928  -3441709.5      1.0011         23293.849     -3418415.6      17.798527      5058055.9      171.66331      171.65787      171.64946      300            70           
    500600   572.22485         314928  -3441710        1.0012         23293.849     -3418416.1      16.320278      5058055.9      171.66331      171.65787      171.64946      600            149          
    500650   572.22485         314928  -3441710.7      1.0013         23293.849     -3418416.9      15.832901      5058055.9      171.66331      171.65787      171.64946      900            215          
    500700   572.22485         314928  -3441710.7      1.0014         23293.849     -3418416.8      15.794516      5058055.9      171.66331      171.65787      171.64946      1200           286          
    500750   572.22485         314928  -3441711        1.0015         23293.849     -3418417.2      15.353563      5058055.9      171.66331      171.65787      171.64946      1500           354          
    500800   572.22485         314928  -3441709.7      1.0016         23293.849     -3418415.9      15.13615       5058055.9      171.66331      171.65787      171.64946      1800           430          
    500850   572.22485         314928  -3441710.7      1.0017         23293.849     -3418416.8      14.525358      5058055.9      171.66331      171.65787      171.64946      2100           512          
    500900   572.22485         314928  -3441710.6      1.0018         23293.849     -3418416.8      14.401646      5058055.9      171.66331      171.65787      171.64946      2400           574          
    500950   572.22485         314928  -3441710        1.0019         23293.849     -3418416.1      15.132636      5058055.9      171.66331      171.65787      171.64946      2700           636          
    501000   572.22485         314928  -3441709.5      1.002          23293.849     -3418415.7      15.608192      5058055.9      171.66331      171.65787      171.64946      3000           704          
Loop time of 1500.94 on 240 procs for 500 steps with 314928 atoms

Performance: 0.058 ns/day, 416.929 hours/ns, 0.333 timesteps/s, 104.910 katom-step/s
94.3% CPU use with 240 MPI tasks x no OpenMP threads

MPI task timing breakdown:
Section |  min time  |  avg time  |  max time  |%varavg| %total
---------------------------------------------------------------
Pair    | 21.335     | 91.75      | 125.53     | 400.4 |  6.11
Neigh   | 0.066718   | 0.077121   | 0.13518    |   4.0 |  0.01
Comm    | 52.463     | 92.915     | 145.33     | 276.8 |  6.19
Output  | 3.507      | 4.6804     | 6.5638     |  37.2 |  0.31
Modify  | 1269.3     | 1270.2     | 1271.5     |   1.8 | 84.63
Other   |            | 41.28      |            |       |  2.75

Nlocal:         1312.2 ave        1397 max        1213 min
Histogram: 25 23 0 40 32 19 28 1 9 63
Nghost:        3298.12 ave        3586 max        3059 min
Histogram: 72 0 0 9 39 60 12 0 1 47
Neighs:        56089.4 ave       59820 max       51759 min
Histogram: 21 22 6 38 35 21 23 3 24 47
FullNghs:      76142.6 ave       81072 max       70381 min
Histogram: 25 23 0 40 32 19 28 1 9 63

Total # of neighbors = 18274232
Ave neighs/atom = 58.026698
Neighbor list builds = 40
Dangerous builds = 0
  unfix swaprand

next swap_counter

# Re-fix NPT
print "#### Begin MD ####"
#### Begin MD ####
fix age all npt temp ${Temp_aging} ${Temp_aging} $(100*dt) aniso 0.0 0.0 $(1000*dt)
fix age all npt temp 573.15 ${Temp_aging} $(100*dt) aniso 0.0 0.0 $(1000*dt)
fix age all npt temp 573.15 573.15 $(100*dt) aniso 0.0 0.0 $(1000*dt)
fix age all npt temp 573.15 573.15 0.2000000000000000111 aniso 0.0 0.0 $(1000*dt)
fix age all npt temp 573.15 573.15 0.2000000000000000111 aniso 0.0 0.0 2
thermo 10
thermo_style custom step temp atoms c_eatoms v_time_tot ke etotal press vol lx ly lz
next loopmdmc_counter
jump SELF loop_mdmc
print "#### Begin MC ####"
#### Begin MC ####

run ${steps}
run 500
Per MPI rank memory allocation (min/avg/max) = 10.52 | 10.57 | 10.62 Mbytes
   Step          Temp         Atoms       c_eatoms      v_time_tot       KinEng         TotEng         Press          Volume           Lx             Ly             Lz      
    501000   572.22485         314928  -3441709.5      1.002          23293.849     -3418415.7      15.608192      5058055.9      171.66331      171.65787      171.64946    
    501010   572.8855          314928  -3441736.1      1.00202        23320.742     -3418415.4     -21.117086      5058057.2      171.66312      171.65785      171.64971    
    501020   573.56244         314928  -3441763.2      1.00204        23348.299     -3418414.9     -50.047933      5058052.2      171.66249      171.65769      171.65033    
    501030   573.01998         314928  -3441740.7      1.00206        23326.217     -3418414.5     -3.2627687      5058034.1      171.66144      171.65727      171.65119    
    501040   572.74063         314928  -3441729        1.00208        23314.845     -3418414.1      27.695853      5058014.3      171.66011      171.65671      171.6524     
    501050   572.8627          314928  -3441733.2      1.0021         23319.814     -3418413.4      11.869484      5058001.8      171.65863      171.65614      171.65403    
    501060   572.91351         314928  -3441734.3      1.00212        23321.882     -3418412.4      5.2128189      5057993.1      171.65708      171.65554      171.65589    
    501070   572.4743          314928  -3441715        1.00214        23304.003     -3418411        39.470796      5057987.3      171.65554      171.65496      171.65781    
    501080   572.72494         314928  -3441723.2      1.00216        23314.206     -3418409        29.515946      5057992.5      171.65412      171.65456      171.65981    
    501090   573.76108         314928  -3441763        1.00218        23356.385     -3418406.6     -23.16635       5058005.5      171.65285      171.65432      171.66175    
    501100   573.4362          314928  -3441747.5      1.0022         23343.16      -3418404.3     -15.207455      5058013.1      171.65165      171.65412      171.66341    
    501110   572.28712         314928  -3441698.2      1.00222        23296.383     -3418401.8      46.201409      5058017.8      171.65059      171.65402      171.66473    
    501120   572.86542         314928  -3441718.4      1.00224        23319.925     -3418398.4      25.685266      5058034.3      171.64991      171.65419      171.66579    
    501130   574.02189         314928  -3441761.4      1.00226        23367.002     -3418394.4     -36.081927      5058057.6      171.64962      171.65458      171.66649    
    501140   573.3697          314928  -3441730.6      1.00228        23340.453     -3418390.1     -18.41388       5058072.1      171.64957      171.65499      171.66662    
    501150   572.06153         314928  -3441672.5      1.0023         23287.2       -3418385.3      35.898963      5058082        171.64983      171.65543      171.66626    
    501160   572.72872         314928  -3441693.3      1.00232        23314.36      -3418378.9      7.3956172      5058100.7      171.65053      171.65607      171.66555    
    501170   574.56238         314928  -3441760.3      1.00234        23389.003     -3418371.3     -52.855039      5058121        171.65161      171.65682      171.66441    
    501180   574.64821         314928  -3441756        1.00236        23392.498     -3418363.5     -47.734731      5058126.9      171.65281      171.6575       171.66273    
    501190   573.40139         314928  -3441697.7      1.00238        23341.743     -3418356        0.90891059     5058119.3      171.65406      171.65813      171.6606     
    501200   572.92444         314928  -3441670.4      1.0024         23322.327     -3418348.1      26.000704      5058111.4      171.6554       171.65883      171.65828    
    501210   573.39476         314928  -3441680.9      1.00242        23341.473     -3418339.4      22.734407      5058110.7      171.65694      171.65955      171.656      
    501220   574.04064         314928  -3441698.3      1.00244        23367.765     -3418330.5      11.358492      5058117        171.6586       171.66019      171.65392    
    501230   574.84265         314928  -3441722.6      1.00246        23400.413     -3418322.2     -19.068722      5058126.1      171.66016      171.66073      171.65213    
    501240   574.67643         314928  -3441708.7      1.00248        23393.646     -3418315       -15.614963      5058130.3      171.66141      171.66107      171.65067    
    501250   573.2938          314928  -3441646.3      1.0025         23337.363     -3418309        47.551039      5058131.4      171.6623       171.66123      171.64966    
    501260   573.37169         314928  -3441643.9      1.00252        23340.534     -3418303.3      50.487358      5058145.5      171.66302      171.66136      171.64929    
    501270   574.7791          314928  -3441696        1.00254        23397.826     -3418298.1     -22.184834      5058172.9      171.66357      171.66142      171.64961    
    501280   575.13005         314928  -3441706.3      1.00256        23412.112     -3418294.2     -40.951035      5058195.4      171.66372      171.6612       171.65045    
    501290   574.27039         314928  -3441668.9      1.00258        23377.118     -3418291.8      3.8193034      5058207.2      171.66339      171.66067      171.65171    
    501300   574.0045          314928  -3441656.7      1.0026         23366.294     -3418290.4      10.642133      5058219.1      171.66274      171.65998      171.65345    
    501310   574.24936         314928  -3441666        1.00262        23376.261     -3418289.8     -20.05926       5058233.4      171.66183      171.6592       171.65562    
    501320   574.19943         314928  -3441664.2      1.00264        23374.229     -3418290       -15.902038      5058242.7      171.66067      171.6583       171.658      
    501330   574.01821         314928  -3441657.9      1.00266        23366.852     -3418291.1      5.5596006      5058247.8      171.65935      171.65737      171.66043    
    501340   574.56721         314928  -3441682.2      1.00268        23389.2       -3418293       -26.629257      5058253.1      171.65798      171.65656      171.66278    
    501350   575.0491          314928  -3441705        1.0027         23408.817     -3418296.2     -66.832052      5058249.9      171.65653      171.65587      171.66481    
    501360   574.2033          314928  -3441675.4      1.00272        23374.386     -3418301       -31.814388      5058228.3      171.6549       171.65525      171.66633    
    501370   573.33141         314928  -3441645.8      1.00274        23338.894     -3418307        17.097848      5058197        171.65327      171.65478      171.66737    
    501380   573.69449         314928  -3441667.3      1.00276        23353.674     -3418313.7      21.083233      5058169.2      171.65188      171.6546       171.668      
    501390   574.17213         314928  -3441694.4      1.00278        23373.118     -3418321.2      12.586511      5058147.4      171.65084      171.65476      171.66814    
    501400   573.93775         314928  -3441693.6      1.0028         23363.577     -3418330        15.182202      5058129.7      171.65015      171.65524      171.66775    
    501410   573.87399         314928  -3441700.8      1.00282        23360.981     -3418339.8      1.9273567      5058116        171.64989      171.65596      171.66682    
    501420   573.77891         314928  -3441707.4      1.00284        23357.111     -3418350.3     -2.9456979      5058103        171.65009      171.65687      171.66527    
    501430   573.64019         314928  -3441712.4      1.00286        23351.464     -3418361       -0.5158647      5058089.2      171.65076      171.65783      171.66317    
    501440   573.66476         314928  -3441723.7      1.00288        23352.464     -3418371.2     -5.1912524      5058074.9      171.65179      171.65876      171.66073    
    501450   573.85181         314928  -3441740.8      1.0029         23360.078     -3418380.7     -22.336574      5058058.5      171.65309      171.65957      171.65807    
    501460   573.49112         314928  -3441734.5      1.00292        23345.395     -3418389.1     -6.6317289      5058035.9      171.65462      171.66011      171.65523    
    501470   572.99346         314928  -3441721.1      1.00294        23325.137     -3418395.9      30.565343      5058011.5      171.65637      171.6604       171.65236    
    501480   572.93847         314928  -3441724.1      1.00296        23322.898     -3418401.2      37.414433      5057995.4      171.65828      171.66056      171.64974    
    501490   572.76277         314928  -3441720.7      1.00298        23315.746     -3418405        37.724367      5057990.5      171.66019      171.66062      171.64761    
    501500   571.88516         314928  -3441687.5      1.003          23280.021     -3418407.5      67.155856      5057998.2      171.66206      171.66053      171.64609    
Loop time of 351.53 on 240 procs for 500 steps with 314928 atoms

Performance: 0.246 ns/day, 97.647 hours/ns, 1.422 timesteps/s, 447.939 katom-step/s
94.3% CPU use with 240 MPI tasks x no OpenMP threads

MPI task timing breakdown:
Section |  min time  |  avg time  |  max time  |%varavg| %total
---------------------------------------------------------------
Pair    | 16.379     | 94.358     | 133.75     | 428.8 | 26.84
Neigh   | 0          | 0          | 0          |   0.0 |  0.00
Comm    | 25.625     | 80.086     | 129.16     | 295.9 | 22.78
Output  | 14.723     | 14.872     | 15.022     |   1.4 |  4.23
Modify  | 108.45     | 144.71     | 200.49     | 245.0 | 41.16
Other   |            | 17.51      |            |       |  4.98

Nlocal:         1312.2 ave        1397 max        1213 min
Histogram: 25 23 0 40 32 19 28 1 9 63
Nghost:        3298.12 ave        3586 max        3059 min
Histogram: 72 0 0 9 39 60 12 0 1 47
Neighs:        56089.4 ave       59820 max       51759 min
Histogram: 21 22 6 38 35 21 23 3 24 47
FullNghs:      76142.6 ave       81072 max       70381 min
Histogram: 25 23 0 40 32 19 28 1 9 63

Total # of neighbors = 18274232
Ave neighs/atom = 58.026698
Neighbor list builds = 0
Dangerous builds = 0
unfix age

variable swap_counter loop ${steps_per_loop}
variable swap_counter loop 500
label loop_swap
  restart 100000 restart.*
  variable seed equal floor(random(1,1000000,12345))

  variable t1 equal 1
  variable t2 equal 3

  print "t1: ${t1}"
t1: 1
  print "t2: ${t2}"
t2: 3

  fix swaprand all atom/swap ${MC_steps} ${nswaps} ${seed} ${Temp_aging} types ${t1} ${t2}
  fix swaprand all atom/swap 25 ${nswaps} ${seed} ${Temp_aging} types ${t1} ${t2}
  fix swaprand all atom/swap 25 150 ${seed} ${Temp_aging} types ${t1} ${t2}
  fix swaprand all atom/swap 25 150 10426 ${Temp_aging} types ${t1} ${t2}
  fix swaprand all atom/swap 25 150 10426 573.15 types ${t1} ${t2}
  fix swaprand all atom/swap 25 150 10426 573.15 types 1 ${t2}
  fix swaprand all atom/swap 25 150 10426 573.15 types 1 3
  thermo 50
  thermo_style custom step temp atoms c_eatoms v_time_tot ke etotal press vol lx ly lz f_swaprand[1] f_swaprand[2]
  run ${steps}
  run 500
WARNING: No fixes with time integration, atoms won't move (../verlet.cpp:60)
Per MPI rank memory allocation (min/avg/max) = 10.52 | 10.57 | 10.62 Mbytes
   Step          Temp         Atoms       c_eatoms      v_time_tot       KinEng         TotEng         Press          Volume           Lx             Ly             Lz       f_swaprand[1]  f_swaprand[2] 
    501500   571.88516         314928  -3441687.5      1.003          23280.021     -3418407.5      67.155856      5057998.2      171.66206      171.66053      171.64609      0              0            
    501550   571.88516         314928  -3441686.8      1.0031         23280.021     -3418406.8      67.112253      5057998.2      171.66206      171.66053      171.64609      300            66           
    501600   571.88516         314928  -3441686.3      1.0032         23280.021     -3418406.3      67.968227      5057998.2      171.66206      171.66053      171.64609      600            135          
    501650   571.88516         314928  -3441685.8      1.0033         23280.021     -3418405.8      67.620751      5057998.2      171.66206      171.66053      171.64609      900            195          
    501700   571.88516         314928  -3441685.9      1.0034         23280.021     -3418405.9      68.0534        5057998.2      171.66206      171.66053      171.64609      1200           283          
    501750   571.88516         314928  -3441686.4      1.0035         23280.021     -3418406.4      68.020886      5057998.2      171.66206      171.66053      171.64609      1500           358          
    501800   571.88516         314928  -3441686.4      1.0036         23280.021     -3418406.4      68.431172      5057998.2      171.66206      171.66053      171.64609      1800           443          
    501850   571.88516         314928  -3441686.6      1.0037         23280.021     -3418406.6      68.865462      5057998.2      171.66206      171.66053      171.64609      2100           506          
    501900   571.88516         314928  -3441687.1      1.0038         23280.021     -3418407.1      68.742779      5057998.2      171.66206      171.66053      171.64609      2400           576          
    501950   571.88516         314928  -3441687        1.0039         23280.021     -3418407        68.813516      5057998.2      171.66206      171.66053      171.64609      2700           658          
    502000   571.88516         314928  -3441686.7      1.004          23280.021     -3418406.7      68.937935      5057998.2      171.66206      171.66053      171.64609      3000           728          
Loop time of 1545.07 on 240 procs for 500 steps with 314928 atoms

Performance: 0.056 ns/day, 429.187 hours/ns, 0.324 timesteps/s, 101.914 katom-step/s
94.4% CPU use with 240 MPI tasks x no OpenMP threads

MPI task timing breakdown:
Section |  min time  |  avg time  |  max time  |%varavg| %total
---------------------------------------------------------------
Pair    | 21.003     | 94.307     | 130.3      | 410.2 |  6.10
Neigh   | 0.067827   | 0.078124   | 0.15823    |   4.8 |  0.01
Comm    | 51.38      | 96.001     | 150.33     | 278.8 |  6.21
Output  | 3.4567     | 4.1971     | 5.3588     |  27.0 |  0.27
Modify  | 1304.2     | 1305.7     | 1306.9     |   1.7 | 84.51
Other   |            | 44.75      |            |       |  2.90

Nlocal:         1312.2 ave        1400 max        1217 min
Histogram: 36 12 2 58 12 30 18 0 25 47
Nghost:         3297.7 ave        3588 max        3056 min
Histogram: 72 0 0 7 41 64 8 0 0 48
Neighs:        56086.3 ave       60151 max       51548 min
Histogram: 13 31 8 33 37 24 21 4 43 26
FullNghs:      76143.7 ave       81250 max       70617 min
Histogram: 36 12 2 58 12 31 17 0 26 46

Total # of neighbors = 18274492
Ave neighs/atom = 58.027524
Neighbor list builds = 40
Dangerous builds = 0
  unfix swaprand

next swap_counter

# Re-fix NPT
print "#### Begin MD ####"
#### Begin MD ####
fix age all npt temp ${Temp_aging} ${Temp_aging} $(100*dt) aniso 0.0 0.0 $(1000*dt)
fix age all npt temp 573.15 ${Temp_aging} $(100*dt) aniso 0.0 0.0 $(1000*dt)
fix age all npt temp 573.15 573.15 $(100*dt) aniso 0.0 0.0 $(1000*dt)
fix age all npt temp 573.15 573.15 0.2000000000000000111 aniso 0.0 0.0 $(1000*dt)
fix age all npt temp 573.15 573.15 0.2000000000000000111 aniso 0.0 0.0 2
thermo 10
thermo_style custom step temp atoms c_eatoms v_time_tot ke etotal press vol lx ly lz
next loopmdmc_counter
jump SELF loop_mdmc
print "#### Begin MC ####"
#### Begin MC ####

run ${steps}
run 500
Per MPI rank memory allocation (min/avg/max) = 10.52 | 10.57 | 10.62 Mbytes
   Step          Temp         Atoms       c_eatoms      v_time_tot       KinEng         TotEng         Press          Volume           Lx             Ly             Lz      
    502000   571.88516         314928  -3441686.7      1.004          23280.021     -3418406.7      68.937935      5057998.2      171.66206      171.66053      171.64609    
    502010   572.6125          314928  -3441715.8      1.00402        23309.629     -3418406.2      30.801471      5058008.4      171.66209      171.6605       171.64643    
    502020   574.8135          314928  -3441804.7      1.00404        23399.226     -3418405.5     -69.166815      5058026.4      171.66203      171.66031      171.64729    
    502030   574.40887         314928  -3441788.6      1.00406        23382.755     -3418405.8     -50.328386      5058026.5      171.66153      171.6597       171.64841    
    502040   572.13267         314928  -3441697        1.00408        23290.096     -3418406.9      54.32976       5058013.4      171.66067      171.65868      171.64984    
    502050   572.09868         314928  -3441696.3      1.0041         23288.713     -3418407.6      53.563071      5058014        171.65988      171.65759      171.65175    
    502060   573.48535         314928  -3441752.7      1.00412        23345.161     -3418407.5     -14.63517       5058029.1      171.65923      171.65651      171.65398    
    502070   573.36179         314928  -3441747.7      1.00414        23340.131     -3418407.5     -8.7371641      5058041.9      171.65854      171.65536      171.65626    
    502080   572.53707         314928  -3441714.2      1.00416        23306.559     -3418407.6      27.158218      5058052.9      171.65777      171.6542       171.65856    
    502090   572.81106         314928  -3441725.1      1.00418        23317.712     -3418407.4      0.54815832     5058070.4      171.65711      171.65315      171.66086    
    502100   573.16155         314928  -3441738.8      1.0042         23331.979     -3418406.8     -28.465527      5058088.2      171.65658      171.65223      171.66292    
    502110   572.80245         314928  -3441723.4      1.00422        23317.361     -3418406.1     -8.1543701      5058098.6      171.65614      171.65142      171.66452    
    502120   573.31285         314928  -3441743.2      1.00424        23338.138     -3418405       -19.041362      5058105.7      171.65587      171.65073      171.66572    
    502130   573.90656         314928  -3441766.3      1.00426        23362.307     -3418404       -53.159608      5058106.3      171.65572      171.65017      171.66646    
    502140   573.17152         314928  -3441735.6      1.00428        23332.385     -3418403.2     -26.915906      5058092.2      171.65552      171.64976      171.66658    
    502150   572.29629         314928  -3441699.1      1.0043         23296.757     -3418402.3      27.02741       5058070.7      171.65529      171.64967      171.66617    
    502160   572.59075         314928  -3441709.3      1.00432        23308.744     -3418400.6      24.643673      5058055.8      171.65519      171.65003      171.6654     
    502170   573.52177         314928  -3441744.8      1.00434        23346.643     -3418398.1     -2.6790661      5058047.8      171.65528      171.65078      171.6643     
    502180   573.26496         314928  -3441731.5      1.00436        23336.189     -3418395.3      11.742736      5058040.2      171.65543      171.65186      171.6628     
    502190   572.67879         314928  -3441704.3      1.00438        23312.327     -3418392        38.536612      5058036.6      171.65555      171.65338      171.66106    
    502200   573.34517         314928  -3441727.4      1.0044         23339.454     -3418387.9      15.752959      5058043.5      171.65564      171.6553       171.65927    
    502210   573.68252         314928  -3441736.5      1.00442        23353.187     -3418383.3      3.5366696      5058055.7      171.65572      171.65739      171.65752    
    502220   573.05602         314928  -3441706.1      1.00444        23327.684     -3418378.4      16.661609      5058069.8      171.65582      171.65947      171.65582    
    502230   572.9494          314928  -3441696.3      1.00446        23323.343     -3418373        17.041855      5058088.7      171.65602      171.66149      171.65424    
    502240   573.75656         314928  -3441723.2      1.00448        23356.201     -3418367       -12.17081       5058112        171.65624      171.66341      171.65289    
    502250   573.81012         314928  -3441719.3      1.0045         23358.381     -3418360.9     -8.0023222      5058132.7      171.6564       171.66503      171.65182    
    502260   573.70807         314928  -3441709.2      1.00452        23354.227     -3418354.9     -12.35383       5058150.9      171.65651      171.66631      171.65104    
    502270   574.142           314928  -3441721.2      1.00454        23371.891     -3418349.4     -41.878357      5058164.6      171.65652      171.66725      171.65056    
    502280   573.60173         314928  -3441694.1      1.00456        23349.898     -3418344.2     -21.05478       5058166.9      171.65635      171.66767      171.65038    
    502290   573.45572         314928  -3441683.2      1.00458        23343.954     -3418339.3     -2.5913769      5058162.6      171.65608      171.66758      171.65059    
    502300   574.50736         314928  -3441721.4      1.0046         23386.764     -3418334.7     -28.738977      5058156        171.6558       171.66702      171.65121    
    502310   574.56684         314928  -3441720.1      1.00462        23389.185     -3418330.9     -25.065807      5058141.3      171.65554      171.66592      171.65206    
    502320   573.19939         314928  -3441661.6      1.00464        23333.52      -3418328.1      38.706773      5058120.4      171.65538      171.66437      171.65308    
    502330   572.87655         314928  -3441645.7      1.00466        23320.378     -3418325.3      61.282023      5058110.2      171.65548      171.66262      171.65438    
    502340   574.05696         314928  -3441690.8      1.00468        23368.429     -3418322.4      11.769133      5058116.7      171.65591      171.66076      171.65602    
    502350   574.5203          314928  -3441707.3      1.0047         23387.29      -3418320       -8.6839588      5058127.9      171.65654      171.65876      171.65778    
    502360   574.16545         314928  -3441691.4      1.00472        23372.845     -3418318.5      6.3924938      5058137.6      171.65726      171.65671      171.65944    
    502370   574.40618         314928  -3441700.6      1.00474        23382.645     -3418318       -13.296621      5058148.3      171.65809      171.65475      171.66092    
    502380   574.66822         314928  -3441711.7      1.00476        23393.312     -3418318.4     -32.097528      5058154.8      171.65896      171.65291      171.66212    
    502390   574.05212         314928  -3441688.3      1.00478        23368.232     -3418320.1     -0.51271908     5058153        171.65976      171.65124      171.66293    
    502400   573.01697         314928  -3441648.6      1.0048         23326.094     -3418322.5      45.320962      5058151.5      171.66056      171.64993      171.66339    
    502410   573.26465         314928  -3441661.4      1.00482        23336.176     -3418325.3      20.789672      5058161.9      171.66151      171.64911      171.66361    
    502420   574.41681         314928  -3441711.5      1.00484        23383.078     -3418328.5     -44.093273      5058177.7      171.66251      171.64875      171.66351    
    502430   574.61605         314928  -3441724.1      1.00486        23391.189     -3418332.9     -41.12222       5058182.1      171.66326      171.64871      171.66295    
    502440   574.01521         314928  -3441705.6      1.00488        23366.73      -3418338.9     -5.9793769      5058174.8      171.66362      171.64906      171.66198    
    502450   573.43593         314928  -3441689.3      1.0049         23343.149     -3418346.1     -3.8962001      5058164.6      171.66361      171.64999      171.66073    
    502460   573.18051         314928  -3441686.9      1.00492        23332.751     -3418354.2     -9.7236666      5058152.8      171.6632       171.65145      171.65927    
    502470   573.26985         314928  -3441699.1      1.00494        23336.388     -3418362.7     -8.5492502      5058138.2      171.6624       171.6533       171.65772    
    502480   573.62355         314928  -3441722.4      1.00496        23350.786     -3418371.6     -27.693526      5058120.1      171.66124      171.65534      171.65623    
    502490   573.57566         314928  -3441729.7      1.00498        23348.837     -3418380.9     -27.31146       5058093.8      171.6597       171.6574       171.65482    
    502500   572.81167         314928  -3441707.9      1.005          23317.737     -3418390.2      9.3072533      5058059.8      171.65783      171.65942      171.65351    
Loop time of 350.821 on 240 procs for 500 steps with 314928 atoms

Performance: 0.246 ns/day, 97.450 hours/ns, 1.425 timesteps/s, 448.845 katom-step/s
94.4% CPU use with 240 MPI tasks x no OpenMP threads

MPI task timing breakdown:
Section |  min time  |  avg time  |  max time  |%varavg| %total
---------------------------------------------------------------
Pair    | 16.875     | 94.74      | 134.12     | 427.9 | 27.01
Neigh   | 0          | 0          | 0          |   0.0 |  0.00
Comm    | 26.647     | 80.206     | 129.13     | 291.6 | 22.86
Output  | 14.074     | 14.232     | 14.34      |   1.3 |  4.06
Modify  | 108.72     | 143.51     | 199.76     | 248.1 | 40.91
Other   |            | 18.13      |            |       |  5.17

Nlocal:         1312.2 ave        1400 max        1217 min
Histogram: 36 12 2 58 12 30 18 0 25 47
Nghost:         3297.7 ave        3588 max        3056 min
Histogram: 72 0 0 7 41 64 8 0 0 48
Neighs:        56086.3 ave       60151 max       51548 min
Histogram: 13 31 8 33 37 24 21 4 43 26
FullNghs:      76143.7 ave       81250 max       70617 min
Histogram: 36 12 2 58 12 31 17 0 26 46

Total # of neighbors = 18274492
Ave neighs/atom = 58.027524
Neighbor list builds = 0
Dangerous builds = 0
unfix age

variable swap_counter loop ${steps_per_loop}
variable swap_counter loop 500
label loop_swap
  restart 100000 restart.*
  variable seed equal floor(random(1,1000000,12345))

  variable t1 equal 1
  variable t2 equal 3

  print "t1: ${t1}"
t1: 1
  print "t2: ${t2}"
t2: 3

  fix swaprand all atom/swap ${MC_steps} ${nswaps} ${seed} ${Temp_aging} types ${t1} ${t2}
  fix swaprand all atom/swap 25 ${nswaps} ${seed} ${Temp_aging} types ${t1} ${t2}
  fix swaprand all atom/swap 25 150 ${seed} ${Temp_aging} types ${t1} ${t2}
  fix swaprand all atom/swap 25 150 293568 ${Temp_aging} types ${t1} ${t2}
  fix swaprand all atom/swap 25 150 293568 573.15 types ${t1} ${t2}
  fix swaprand all atom/swap 25 150 293568 573.15 types 1 ${t2}
  fix swaprand all atom/swap 25 150 293568 573.15 types 1 3
  thermo 50
  thermo_style custom step temp atoms c_eatoms v_time_tot ke etotal press vol lx ly lz f_swaprand[1] f_swaprand[2]
  run ${steps}
  run 500
WARNING: No fixes with time integration, atoms won't move (../verlet.cpp:60)
Per MPI rank memory allocation (min/avg/max) = 10.52 | 10.57 | 10.62 Mbytes
   Step          Temp         Atoms       c_eatoms      v_time_tot       KinEng         TotEng         Press          Volume           Lx             Ly             Lz       f_swaprand[1]  f_swaprand[2] 
    502500   572.81167         314928  -3441707.9      1.005          23317.737     -3418390.2      9.3072533      5058059.8      171.65783      171.65942      171.65351      0              0            
    502550   572.81167         314928  -3441709.3      1.0051         23317.737     -3418391.6      7.8573784      5058059.8      171.65783      171.65942      171.65351      300            67           
    502600   572.81167         314928  -3441709.1      1.0052         23317.737     -3418391.4      7.8500447      5058059.8      171.65783      171.65942      171.65351      600            149          
    502650   572.81167         314928  -3441708.4      1.0053         23317.737     -3418390.7      8.4553767      5058059.8      171.65783      171.65942      171.65351      900            210          
    502700   572.81167         314928  -3441708.4      1.0054         23317.737     -3418390.6      8.1436112      5058059.8      171.65783      171.65942      171.65351      1200           282          
    502750   572.81167         314928  -3441708.4      1.0055         23317.737     -3418390.7      8.0050066      5058059.8      171.65783      171.65942      171.65351      1500           361          
    502800   572.81167         314928  -3441708.3      1.0056         23317.737     -3418390.6      7.9985038      5058059.8      171.65783      171.65942      171.65351      1800           436          
    502850   572.81167         314928  -3441708.2      1.0057         23317.737     -3418390.4      7.8929687      5058059.8      171.65783      171.65942      171.65351      2100           498          
    502900   572.81167         314928  -3441706.8      1.0058         23317.737     -3418389.1      8.5229391      5058059.8      171.65783      171.65942      171.65351      2400           560          
    502950   572.81167         314928  -3441706.2      1.0059         23317.737     -3418388.5      9.022207       5058059.8      171.65783      171.65942      171.65351      2700           627          
    503000   572.81167         314928  -3441706.9      1.006          23317.737     -3418389.2      7.9368068      5058059.8      171.65783      171.65942      171.65351      3000           698          
Loop time of 1613.49 on 240 procs for 500 steps with 314928 atoms

Performance: 0.054 ns/day, 448.193 hours/ns, 0.310 timesteps/s, 97.592 katom-step/s
94.4% CPU use with 240 MPI tasks x no OpenMP threads

MPI task timing breakdown:
Section |  min time  |  avg time  |  max time  |%varavg| %total
---------------------------------------------------------------
Pair    | 22.804     | 99.79      | 137.75     | 417.7 |  6.18
Neigh   | 0.067303   | 0.077317   | 0.17153    |   4.2 |  0.00
Comm    | 53.074     | 103.14     | 161.03     | 283.6 |  6.39
Output  | 3.4946     | 4.0835     | 5.2147     |  25.9 |  0.25
Modify  | 1358.8     | 1360.2     | 1361.7     |   2.2 | 84.30
Other   |            | 46.23      |            |       |  2.87

Nlocal:         1312.2 ave        1394 max        1218 min
Histogram: 38 10 1 50 21 20 28 0 7 65
Nghost:        3297.98 ave        3593 max        3061 min
Histogram: 72 0 0 26 22 67 5 0 3 45
Neighs:        56089.7 ave       60062 max       51486 min
Histogram: 13 28 6 34 39 20 27 2 45 26
FullNghs:      76142.8 ave       80880 max       70667 min
Histogram: 38 10 1 48 23 20 28 0 7 65

Total # of neighbors = 18274262
Ave neighs/atom = 58.026793
Neighbor list builds = 40
Dangerous builds = 0
  unfix swaprand

next swap_counter

# Re-fix NPT
print "#### Begin MD ####"
#### Begin MD ####
fix age all npt temp ${Temp_aging} ${Temp_aging} $(100*dt) aniso 0.0 0.0 $(1000*dt)
fix age all npt temp 573.15 ${Temp_aging} $(100*dt) aniso 0.0 0.0 $(1000*dt)
fix age all npt temp 573.15 573.15 $(100*dt) aniso 0.0 0.0 $(1000*dt)
fix age all npt temp 573.15 573.15 0.2000000000000000111 aniso 0.0 0.0 $(1000*dt)
fix age all npt temp 573.15 573.15 0.2000000000000000111 aniso 0.0 0.0 2
thermo 10
thermo_style custom step temp atoms c_eatoms v_time_tot ke etotal press vol lx ly lz
next loopmdmc_counter
jump SELF loop_mdmc
print "#### Begin MC ####"
#### Begin MC ####

run ${steps}
run 500
Per MPI rank memory allocation (min/avg/max) = 10.52 | 10.57 | 10.62 Mbytes
   Step          Temp         Atoms       c_eatoms      v_time_tot       KinEng         TotEng         Press          Volume           Lx             Ly             Lz      
    503000   572.81167         314928  -3441706.9      1.006          23317.737     -3418389.2      7.9368068      5058059.8      171.65783      171.65942      171.65351    
    503010   572.91027         314928  -3441710.8      1.00602        23321.75      -3418389        8.7047685      5058061.6      171.65781      171.65935      171.65366    
    503020   573.81383         314928  -3441747.3      1.00604        23358.532     -3418388.8     -20.95142       5058065        171.65773      171.6591       171.65412    
    503030   573.98399         314928  -3441754.4      1.00606        23365.459     -3418389       -27.707538      5058062.6      171.65748      171.65862      171.65476    
    503040   572.9282          314928  -3441712.2      1.00608        23322.48      -3418389.7      8.8839072      5058052.9      171.65706      171.65801      171.65547    
    503050   572.0555          314928  -3441677.3      1.0061         23286.955     -3418390.3      44.26202       5058045.9      171.65654      171.65744      171.65631    
    503060   572.95129         314928  -3441713.7      1.00612        23323.42      -3418390.3      3.2814312      5058050.4      171.65607      171.65697      171.6574     
    503070   574.19095         314928  -3441764        1.00614        23373.884     -3418390.1     -41.948318      5058055.7      171.65562      171.65646      171.65855    
    503080   573.81668         314928  -3441749.2      1.00616        23358.648     -3418390.5     -14.906658      5058050.1      171.65512      171.65582      171.65949    
    503090   573.0156          314928  -3441717.6      1.00618        23326.038     -3418391.6      16.609696      5058040        171.65472      171.65521      171.66016    
    503100   573.48841         314928  -3441738.1      1.0062         23345.285     -3418392.8     -3.2571754      5058033.6      171.65455      171.65475      171.66058    
    503110   573.55322         314928  -3441742.4      1.00622        23347.923     -3418394.4     -0.71035871     5058027        171.65456      171.65439      171.66071    
    503120   572.87462         314928  -3441716.9      1.00624        23320.299     -3418396.6      30.828317      5058021.2      171.65472      171.65413      171.6606     
    503130   572.84764         314928  -3441718.1      1.00626        23319.201     -3418398.9      17.643096      5058023.4      171.65514      171.65409      171.6603     
    503140   572.95924         314928  -3441725.2      1.00628        23323.744     -3418401.4     -2.3847596      5058030.9      171.65581      171.65418      171.65979    
    503150   572.62699         314928  -3441714.4      1.0063         23310.219     -3418404.2      13.393118      5058038.8      171.65667      171.65433      171.65905    
    503160   572.94274         314928  -3441730.2      1.00632        23323.072     -3418407.1      6.7973673      5058050.2      171.65763      171.65462      171.65819    
    503170   573.70714         314928  -3441764.7      1.00634        23354.189     -3418410.5     -43.413752      5058062.5      171.6586       171.655        171.65726    
    503180   573.07409         314928  -3441743.3      1.00636        23328.419     -3418414.9     -34.846032      5058063.1      171.65943      171.65528      171.65617    
    503190   572.23433         314928  -3441714.1      1.00638        23294.234     -3418419.9      5.5734655      5058053.8      171.66007      171.65548      171.65502    
    503200   572.59765         314928  -3441734.1      1.0064         23309.024     -3418425.1     -7.0195069      5058044.7      171.66056      171.65569      171.65401    
    503210   572.98562         314928  -3441755.3      1.00642        23324.818     -3418430.5     -35.71876       5058033.1      171.66086      171.65585      171.65315    
    503220   572.79841         314928  -3441753.6      1.00644        23317.197     -3418436.4     -31.183111      5058011.1      171.66087      171.65585      171.65239    
    503230   572.06313         314928  -3441729.7      1.00646        23287.265     -3418442.5      17.133937      5057980.5      171.6606       171.65569      171.65179    
    503240   571.63812         314928  -3441718.1      1.00648        23269.964     -3418448.2      42.05833       5057954.3      171.66014      171.65552      171.65152    
    503250   572.20036         314928  -3441746        1.0065         23292.852     -3418453.1      12.547541      5057939.4      171.65957      171.65544      171.65167    
    503260   572.59407         314928  -3441766.4      1.00652        23308.879     -3418457.6     -2.4659659      5057928.9      171.65887      171.65533      171.65212    
    503270   573.09498         314928  -3441791.1      1.00654        23329.269     -3418461.8     -13.906744      5057917.6      171.65805      171.65512      171.65277    
    503280   573.61107         314928  -3441816.6      1.00656        23350.278     -3418466.3     -30.949062      5057901.6      171.65701      171.65481      171.65358    
    503290   572.33137         314928  -3441769.3      1.00658        23298.185     -3418471.1      17.292453      5057877.9      171.65572      171.65443      171.65445    
    503300   570.72037         314928  -3441708.1      1.0066         23232.605     -3418475.5      76.581757      5057859.5      171.65441      171.6541       171.65546    
    503310   571.32678         314928  -3441735.5      1.00662        23257.29      -3418478.3      44.833441      5057862.2      171.65341      171.65396      171.65669    
    503320   573.14345         314928  -3441811.1      1.00664        23331.243     -3418479.8     -21.672075      5057877.8      171.65274      171.6539       171.65795    
    503330   572.74238         314928  -3441796.1      1.00666        23314.916     -3418481.2     -1.7164788      5057889.4      171.65224      171.65375      171.65899    
    503340   571.03029         314928  -3441727.3      1.00668        23245.221     -3418482.1      37.043427      5057901.3      171.65195      171.6536       171.65983    
    503350   571.76667         314928  -3441756.8      1.0067         23275.197     -3418481.6     -19.160565      5057922        171.65201      171.65353      171.66055    
    503360   573.51132         314928  -3441826.3      1.00672        23346.217     -3418480.1     -73.418848      5057937        171.65223      171.65344      171.66092    
    503370   572.67976         314928  -3441790.7      1.00674        23312.367     -3418478.3     -6.8619078      5057933.1      171.65246      171.65324      171.66075    
    503380   571.48721         314928  -3441739.8      1.00676        23263.821     -3418476        37.341906      5057926.3      171.6529       171.65311      171.66022    
    503390   572.03374         314928  -3441758.4      1.00678        23286.069     -3418472.3     -5.449216       5057928.4      171.65371      171.65312      171.65947    
    503400   571.95599         314928  -3441750.1      1.0068         23282.904     -3418467.2     -10.323154      5057930.1      171.65473      171.65317      171.65847    
    503410   571.71171         314928  -3441733.5      1.00682        23272.96      -3418460.5      34.245602      5057930.1      171.65584      171.65326      171.65726    
    503420   572.89568         314928  -3441773.5      1.00684        23321.156     -3418452.4      6.9196619      5057938.4      171.65711      171.65355      171.65597    
    503430   573.32666         314928  -3441782.1      1.00686        23338.701     -3418443.4     -24.225452      5057948.7      171.65847      171.65397      171.65456    
    503440   572.18196         314928  -3441726.1      1.00688        23292.102     -3418434        20.474076      5057954        171.65972      171.65442      171.65303    
    503450   572.22155         314928  -3441717.7      1.0069         23293.714     -3418424        35.988312      5057964.7      171.66087      171.65502      171.65165    
    503460   573.63754         314928  -3441765        1.00692        23351.356     -3418413.7     -7.5793575      5057984.9      171.66188      171.65578      171.65056    
    503470   573.97472         314928  -3441769.3      1.00694        23365.081     -3418404.3     -18.315007      5058004.1      171.66262      171.65654      171.64971    
    503480   573.03258         314928  -3441722.9      1.00696        23326.729     -3418396.2      13.623314      5058019.1      171.66299      171.65723      171.64916    
    503490   572.792           314928  -3441706        1.00698        23316.936     -3418389        8.8750353      5058037.6      171.66303      171.65794      171.64905    
    503500   573.3186          314928  -3441721        1.007          23338.372     -3418382.6     -23.705907      5058058.3      171.6627       171.65861      171.64941    
Loop time of 367.572 on 240 procs for 500 steps with 314928 atoms

Performance: 0.235 ns/day, 102.103 hours/ns, 1.360 timesteps/s, 428.389 katom-step/s
94.4% CPU use with 240 MPI tasks x no OpenMP threads

MPI task timing breakdown:
Section |  min time  |  avg time  |  max time  |%varavg| %total
---------------------------------------------------------------
Pair    | 17.325     | 102.27     | 144.87     | 444.7 | 27.82
Neigh   | 0          | 0          | 0          |   0.0 |  0.00
Comm    | 27.997     | 85.108     | 140.16     | 309.5 | 23.15
Output  | 15.832     | 16.007     | 16.104     |   1.1 |  4.35
Modify  | 108.45     | 146.34     | 205.61     | 254.9 | 39.81
Other   |            | 17.85      |            |       |  4.86

Nlocal:         1312.2 ave        1394 max        1218 min
Histogram: 38 10 1 50 21 20 28 0 7 65
Nghost:        3297.98 ave        3593 max        3061 min
Histogram: 72 0 0 26 22 67 5 0 3 45
Neighs:        56089.7 ave       60062 max       51486 min
Histogram: 13 28 6 34 39 20 27 2 45 26
FullNghs:      76142.8 ave       80880 max       70667 min
Histogram: 38 10 1 48 23 20 28 0 7 65

Total # of neighbors = 18274262
Ave neighs/atom = 58.026793
Neighbor list builds = 0
Dangerous builds = 0
unfix age

variable swap_counter loop ${steps_per_loop}
variable swap_counter loop 500
label loop_swap
  restart 100000 restart.*
  variable seed equal floor(random(1,1000000,12345))

  variable t1 equal 1
  variable t2 equal 3

  print "t1: ${t1}"
t1: 1
  print "t2: ${t2}"
t2: 3

  fix swaprand all atom/swap ${MC_steps} ${nswaps} ${seed} ${Temp_aging} types ${t1} ${t2}
  fix swaprand all atom/swap 25 ${nswaps} ${seed} ${Temp_aging} types ${t1} ${t2}
  fix swaprand all atom/swap 25 150 ${seed} ${Temp_aging} types ${t1} ${t2}
  fix swaprand all atom/swap 25 150 20643 ${Temp_aging} types ${t1} ${t2}
  fix swaprand all atom/swap 25 150 20643 573.15 types ${t1} ${t2}
  fix swaprand all atom/swap 25 150 20643 573.15 types 1 ${t2}
  fix swaprand all atom/swap 25 150 20643 573.15 types 1 3
  thermo 50
  thermo_style custom step temp atoms c_eatoms v_time_tot ke etotal press vol lx ly lz f_swaprand[1] f_swaprand[2]
  run ${steps}
  run 500
WARNING: No fixes with time integration, atoms won't move (../verlet.cpp:60)
Per MPI rank memory allocation (min/avg/max) = 10.52 | 10.57 | 10.62 Mbytes
   Step          Temp         Atoms       c_eatoms      v_time_tot       KinEng         TotEng         Press          Volume           Lx             Ly             Lz       f_swaprand[1]  f_swaprand[2] 
    503500   573.3186          314928  -3441721        1.007          23338.372     -3418382.6     -23.705907      5058058.3      171.6627       171.65861      171.64941      0              0            
    503550   573.3186          314928  -3441720.7      1.0071         23338.372     -3418382.3     -23.85032       5058058.3      171.6627       171.65861      171.64941      300            60           
    503600   573.3186          314928  -3441721.2      1.0072         23338.372     -3418382.8     -24.792927      5058058.3      171.6627       171.65861      171.64941      600            131          
    503650   573.3186          314928  -3441720.8      1.0073         23338.372     -3418382.4     -23.983817      5058058.3      171.6627       171.65861      171.64941      900            197          
    503700   573.3186          314928  -3441721.1      1.0074         23338.372     -3418382.7     -23.306103      5058058.3      171.6627       171.65861      171.64941      1200           257          
    503750   573.3186          314928  -3441720.4      1.0075         23338.372     -3418382       -22.592218      5058058.3      171.6627       171.65861      171.64941      1500           327          
    503800   573.3186          314928  -3441720.9      1.0076         23338.372     -3418382.5     -22.106664      5058058.3      171.6627       171.65861      171.64941      1800           396          
    503850   573.3186          314928  -3441720.7      1.0077         23338.372     -3418382.3     -21.139018      5058058.3      171.6627       171.65861      171.64941      2100           457          
    503900   573.3186          314928  -3441720        1.0078         23338.372     -3418381.6     -21.426474      5058058.3      171.6627       171.65861      171.64941      2400           527          
    503950   573.3186          314928  -3441720.1      1.0079         23338.372     -3418381.7     -21.847933      5058058.3      171.6627       171.65861      171.64941      2700           583          
    504000   573.3186          314928  -3441720        1.008          23338.372     -3418381.6     -21.710755      5058058.3      171.6627       171.65861      171.64941      3000           652          
Loop time of 1560.68 on 240 procs for 500 steps with 314928 atoms

Performance: 0.055 ns/day, 433.522 hours/ns, 0.320 timesteps/s, 100.894 katom-step/s
94.4% CPU use with 240 MPI tasks x no OpenMP threads

MPI task timing breakdown:
Section |  min time  |  avg time  |  max time  |%varavg| %total
---------------------------------------------------------------
Pair    | 23.269     | 97.111     | 133.91     | 406.6 |  6.22
Neigh   | 0.067137   | 0.078261   | 0.1691     |   5.0 |  0.01
Comm    | 56.515     | 98.301     | 154.08     | 281.9 |  6.30
Output  | 3.215      | 3.8946     | 5.068      |  28.9 |  0.25
Modify  | 1318.4     | 1319.4     | 1320.7     |   1.8 | 84.54
Other   |            | 41.86      |            |       |  2.68

Nlocal:         1312.2 ave        1397 max        1215 min
Histogram: 32 16 1 39 32 25 23 0 9 63
Nghost:        3297.64 ave        3587 max        3058 min
Histogram: 71 1 0 12 36 60 12 0 0 48
Neighs:        56091.4 ave       60042 max       51393 min
Histogram: 9 30 11 22 48 20 26 3 41 30
FullNghs:      76143.2 ave       81071 max       70498 min
Histogram: 32 16 1 41 30 25 23 0 10 62

Total # of neighbors = 18274374
Ave neighs/atom = 58.027149
Neighbor list builds = 40
Dangerous builds = 0
  unfix swaprand

next swap_counter

# Re-fix NPT
print "#### Begin MD ####"
#### Begin MD ####
fix age all npt temp ${Temp_aging} ${Temp_aging} $(100*dt) aniso 0.0 0.0 $(1000*dt)
fix age all npt temp 573.15 ${Temp_aging} $(100*dt) aniso 0.0 0.0 $(1000*dt)
fix age all npt temp 573.15 573.15 $(100*dt) aniso 0.0 0.0 $(1000*dt)
fix age all npt temp 573.15 573.15 0.2000000000000000111 aniso 0.0 0.0 $(1000*dt)
fix age all npt temp 573.15 573.15 0.2000000000000000111 aniso 0.0 0.0 2
thermo 10
thermo_style custom step temp atoms c_eatoms v_time_tot ke etotal press vol lx ly lz
next loopmdmc_counter
jump SELF loop_mdmc
print "#### Begin MC ####"
#### Begin MC ####

run ${steps}
run 500
Per MPI rank memory allocation (min/avg/max) = 10.52 | 10.57 | 10.62 Mbytes
   Step          Temp         Atoms       c_eatoms      v_time_tot       KinEng         TotEng         Press          Volume           Lx             Ly             Lz      
    504000   573.3186          314928  -3441720        1.008          23338.372     -3418381.6     -21.710755      5058058.3      171.6627       171.65861      171.64941    
    504010   573.0163          314928  -3441707.7      1.00802        23326.067     -3418381.6      1.4491982      5058055.5      171.66249      171.65852      171.64962    
    504020   573.09149         314928  -3441710.7      1.00804        23329.127     -3418381.6      16.605825      5058053        171.66194      171.65831      171.65028    
    504030   573.64407         314928  -3441733.2      1.00806        23351.622     -3418381.6     -17.390657      5058054.1      171.6611       171.65808      171.65139    
    504040   573.07021         314928  -3441710.1      1.00808        23328.261     -3418381.8     -14.758204      5058051        171.65993      171.65776      171.65278    
    504050   572.49317         314928  -3441686.8      1.0081         23304.771     -3418382        19.637934      5058044.4      171.65852      171.65733      171.6544     
    504060   573.18889         314928  -3441714.9      1.00812        23333.092     -3418381.8      11.131344      5058042.7      171.65708      171.65685      171.65625    
    504070   574.53859         314928  -3441769.8      1.00814        23388.035     -3418381.8     -32.576321      5058043.4      171.65565      171.65633      171.65822    
    504080   573.87532         314928  -3441743.7      1.00816        23361.035     -3418382.6     -16.134609      5058035.7      171.65421      171.65572      171.66002    
    504090   572.48109         314928  -3441688.3      1.00818        23304.28      -3418384.1      42.185182      5058024.4      171.65285      171.65519      171.66152    
    504100   573.11811         314928  -3441715.6      1.0082         23330.211     -3418385.4      22.498416      5058023.7      171.65182      171.65493      171.66279    
    504110   574.03362         314928  -3441754.4      1.00822        23367.479     -3418386.9     -20.402816      5058029.3      171.65116      171.65483      171.66374    
    504120   573.4589          314928  -3441733.3      1.00824        23344.084     -3418389.2     -14.513467      5058030.1      171.65077      171.65477      171.66422    
    504130   572.34297         314928  -3441690.8      1.00826        23298.657     -3418392.1      17.253606      5058027.1      171.65065      171.65481      171.6642     
    504140   572.27001         314928  -3441690.7      1.00828        23295.687     -3418395        26.572904      5058028.7      171.6509       171.65504      171.66378    
    504150   573.01691         314928  -3441723.8      1.0083         23326.092     -3418397.8      16.39866       5058038.1      171.65159      171.65549      171.66295    
    504160   573.25488         314928  -3441736.6      1.00832        23335.779     -3418400.8      2.0211901      5058052.7      171.65272      171.65608      171.66171    
    504170   573.17309         314928  -3441737        1.00834        23332.449     -3418404.5     -31.468943      5058067.3      171.65419      171.65673      171.6601     
    504180   572.98621         314928  -3441733.8      1.00836        23324.842     -3418409       -33.234445      5058073.2      171.65581      171.65732      171.65809    
    504190   572.32239         314928  -3441711.8      1.00838        23297.819     -3418414        9.890586       5058070.1      171.65745      171.65787      171.6558     
    504200   572.5482          314928  -3441726.1      1.0084         23307.011     -3418419.1     -0.25340473     5058068.5      171.65909      171.65845      171.65352    
    504210   573.81675         314928  -3441783.3      1.00842        23358.651     -3418424.7     -70.688342      5058065.1      171.6606       171.65901      171.65133    
    504220   573.31855         314928  -3441769.6      1.00844        23338.37      -3418431.2     -66.149062      5058042        171.66172      171.6593       171.64914    
    504230   571.33009         314928  -3441695.7      1.00846        23257.425     -3418438.3      26.754427      5058000.8      171.6624       171.65926      171.64711    
    504240   571.65122         314928  -3441715.2      1.00848        23270.497     -3418444.7      39.429481      5057965.3      171.66289      171.65908      171.64558    
    504250   573.4316          314928  -3441793.4      1.0085         23342.973     -3418450.4     -9.1853564      5057939.9      171.66322      171.65884      171.64464    
    504260   573.22803         314928  -3441791.1      1.00852        23334.686     -3418456.4      1.5157672      5057913.3      171.66317      171.65843      171.64419    
    504270   571.73625         314928  -3441736.5      1.00854        23273.959     -3418462.5      50.618221      5057888        171.66276      171.65786      171.64432    
    504280   571.49289         314928  -3441731.9      1.00856        23264.052     -3418467.8      47.88123       5057876.7      171.66215      171.65724      171.64516    
    504290   572.42958         314928  -3441774.2      1.00858        23302.183     -3418472.1      20.499079      5057879.3      171.66137      171.6566       171.64667    
    504300   572.68874         314928  -3441788.4      1.0086         23312.732     -3418475.7      20.340879      5057889.1      171.66035      171.65591      171.64872    
    504310   572.59308         314928  -3441787.8      1.00862        23308.838     -3418479        6.5957652      5057904.9      171.65914      171.65515      171.65122    
    504320   572.33092         314928  -3441780.2      1.00864        23298.167     -3418482       -20.950275      5057922.3      171.65778      171.65436      171.65396    
    504330   571.39928         314928  -3441744.5      1.00866        23260.242     -3418484.3     -1.2161802      5057934.9      171.65628      171.65356      171.65668    
    504340   571.19738         314928  -3441737.3      1.00868        23252.023     -3418485.3      20.04699       5057947.2      171.65475      171.65285      171.65934    
    504350   572.3898          314928  -3441785.5      1.0087         23300.563     -3418485       -19.244015      5057964.1      171.65326      171.65232      171.66194    
    504360   573.13385         314928  -3441814.7      1.00872        23330.852     -3418483.9     -62.668434      5057975        171.65183      171.6519       171.66416    
    504370   572.33327         314928  -3441780.7      1.00874        23298.262     -3418482.5     -43.095457      5057968.4      171.65045      171.65154      171.66567    
    504380   571.39015         314928  -3441740.1      1.00876        23259.87      -3418480.3      3.7393327      5057949        171.64922      171.65131      171.66647    
    504390   571.56236         314928  -3441743.4      1.00878        23266.88      -3418476.6      18.935653      5057929.6      171.64836      171.6513       171.66669    
    504400   572.26408         314928  -3441766.6      1.0088         23295.445     -3418471.2      4.5901048      5057915        171.64797      171.65157      171.66632    
    504410   572.70872         314928  -3441778        1.00882        23313.546     -3418464.5     -7.1749387      5057901.8      171.64801      171.65208      171.66532    
    504420   572.49427         314928  -3441761.7      1.00884        23304.816     -3418456.8      18.017573      5057887.2      171.64841      171.65277      171.66372    
    504430   571.70826         314928  -3441720.8      1.00886        23272.82      -3418448        74.51436       5057879        171.64928      171.65372      171.66163    
    504440   572.38581         314928  -3441738.2      1.00888        23300.401     -3418437.8      63.386782      5057891.7      171.65072      171.655        171.65935    
    504450   573.97981         314928  -3441792.4      1.0089         23365.289     -3418427.1     -9.8491351      5057922.4      171.65267      171.65645      171.65698    
    504460   573.91667         314928  -3441779.8      1.00892        23362.719     -3418417.1     -18.60951       5057952.3      171.65488      171.65783      171.65441    
    504470   572.36822         314928  -3441707.9      1.00894        23299.685     -3418408.2      43.030897      5057978.9      171.6572       171.65904      171.65179    
    504480   571.67923         314928  -3441671.3      1.00896        23271.638     -3418399.7      55.10989       5058017.7      171.65969      171.6602       171.64945    
    504490   572.94423         314928  -3441714.3      1.00898        23323.133     -3418391.2     -17.054026      5058071.6      171.66228      171.66133      171.64756    
    504500   573.8167          314928  -3441742.3      1.009          23358.649     -3418383.7     -58.615891      5058122        171.66463      171.6622       171.64605    
Loop time of 354.773 on 240 procs for 500 steps with 314928 atoms

Performance: 0.244 ns/day, 98.548 hours/ns, 1.409 timesteps/s, 443.844 katom-step/s
94.4% CPU use with 240 MPI tasks x no OpenMP threads

MPI task timing breakdown:
Section |  min time  |  avg time  |  max time  |%varavg| %total
---------------------------------------------------------------
Pair    | 16.059     | 93.392     | 132.45     | 429.6 | 26.32
Neigh   | 0          | 0          | 0          |   0.0 |  0.00
Comm    | 25.738     | 79.424     | 128.5      | 294.9 | 22.39
Output  | 15.594     | 15.744     | 15.905     |   1.8 |  4.44
Modify  | 114.31     | 147.18     | 203.32     | 238.6 | 41.48
Other   |            | 19.04      |            |       |  5.37

Nlocal:         1312.2 ave        1397 max        1215 min
Histogram: 32 16 1 39 32 25 23 0 9 63
Nghost:        3297.64 ave        3587 max        3058 min
Histogram: 71 1 0 12 36 60 12 0 0 48
Neighs:        56091.4 ave       60042 max       51393 min
Histogram: 9 30 11 22 48 20 26 3 41 30
FullNghs:      76143.2 ave       81071 max       70498 min
Histogram: 32 16 1 41 30 25 23 0 10 62

Total # of neighbors = 18274374
Ave neighs/atom = 58.027149
Neighbor list builds = 0
Dangerous builds = 0
unfix age

variable swap_counter loop ${steps_per_loop}
variable swap_counter loop 500
label loop_swap
  restart 100000 restart.*
  variable seed equal floor(random(1,1000000,12345))

  variable t1 equal 1
  variable t2 equal 3

  print "t1: ${t1}"
t1: 1
  print "t2: ${t2}"
t2: 3

  fix swaprand all atom/swap ${MC_steps} ${nswaps} ${seed} ${Temp_aging} types ${t1} ${t2}
  fix swaprand all atom/swap 25 ${nswaps} ${seed} ${Temp_aging} types ${t1} ${t2}
  fix swaprand all atom/swap 25 150 ${seed} ${Temp_aging} types ${t1} ${t2}
[...]
    631350   574.41296         314928  -3441680.4      1.2627         23382.921     -3418297.4      5.0683288      5058167.3      171.66235      171.65742      171.65464    
    631360   575.09968         314928  -3441709.1      1.26272        23410.876     -3418298.3     -47.748293      5058200.7      171.66221      171.65794      171.65539    
    631370   574.5796          314928  -3441690.4      1.26274        23389.705     -3418300.7     -45.269166      5058221.2      171.66181      171.65816      171.65627    
    631380   573.62227         314928  -3441655.3      1.26276        23350.734     -3418304.6     -17.149102      5058228.6      171.66112      171.65812      171.65725    
    631390   573.51541         314928  -3441655.7      1.26278        23346.384     -3418309.3     -22.862699      5058229.9      171.66024      171.65799      171.65831    
    631400   574.36112         314928  -3441695.8      1.2628         23380.811     -3418315       -58.047645      5058223.1      171.65922      171.65774      171.65935    
    631410   574.87566         314928  -3441723.9      1.26282        23401.756     -3418322.1     -68.586176      5058199        171.65807      171.65728      171.66014    
    631420   574.01953         314928  -3441698        1.26284        23366.906     -3418331.1     -15.683462      5058155.1      171.65674      171.65661      171.66065    
    631430   573.2668          314928  -3441677.5      1.26286        23336.264     -3418341.3      29.775597      5058105.6      171.65539      171.65593      171.661      
    631440   573.60705         314928  -3441702        1.26288        23350.115     -3418351.9      8.7000375      5058062.9      171.65421      171.65539      171.66127    
    631450   573.38717         314928  -3441703.6      1.2629         23341.164     -3418362.5      12.02145       5058023        171.65324      171.65494      171.66133    
    631460   572.80786         314928  -3441690.2      1.26292        23317.582     -3418372.6      57.917404      5057987.8      171.65252      171.65458      171.66123    
    631470   573.11395         314928  -3441711.6      1.26294        23330.042     -3418381.6      52.472879      5057968.4      171.65217      171.65442      171.66107    
    631480   573.49237         314928  -3441735        1.26296        23345.446     -3418389.5      11.615962      5057964        171.65225      171.65448      171.66077    
    631490   573.46884         314928  -3441741.1      1.26298        23344.489     -3418396.6     -5.6059632      5057963.7      171.6527       171.65468      171.66012    
    631500   573.03037         314928  -3441729.4      1.263          23326.639     -3418402.8      16.976985      5057962.8      171.65344      171.65498      171.65906    
Loop time of 355.852 on 240 procs for 500 steps with 314928 atoms

Performance: 0.243 ns/day, 98.848 hours/ns, 1.405 timesteps/s, 442.498 katom-step/s
94.4% CPU use with 240 MPI tasks x no OpenMP threads

MPI task timing breakdown:
Section |  min time  |  avg time  |  max time  |%varavg| %total
---------------------------------------------------------------
Pair    | 15.766     | 93.1       | 132.53     | 437.5 | 26.16
Neigh   | 0          | 0          | 0          |   0.0 |  0.00
Comm    | 23.214     | 80.172     | 129.88     | 289.9 | 22.53
Output  | 15.883     | 16.085     | 16.257     |   2.1 |  4.52
Modify  | 113.62     | 147.77     | 209.98     | 248.6 | 41.53
Other   |            | 18.73      |            |       |  5.26

Nlocal:         1312.2 ave        1398 max        1217 min
Histogram: 33 15 0 38 34 32 16 0 22 50
Nghost:        3256.85 ave        3532 max        3057 min
Histogram: 72 0 0 3 104 13 0 2 30 16
Neighs:        56095.6 ave       59778 max       51544 min
Histogram: 15 23 11 16 55 21 20 8 28 43
FullNghs:      76142.4 ave       81123 max       70614 min
Histogram: 31 17 0 38 34 32 16 0 22 50

Total # of neighbors = 18274166
Ave neighs/atom = 58.026489
Neighbor list builds = 0
Dangerous builds = 0
unfix age

variable swap_counter loop ${steps_per_loop}
variable swap_counter loop 500
label loop_swap
  restart 100000 restart.*
  variable seed equal floor(random(1,1000000,12345))

  variable t1 equal 1
  variable t2 equal 3

  print "t1: ${t1}"
t1: 1
  print "t2: ${t2}"
t2: 3

  fix swaprand all atom/swap ${MC_steps} ${nswaps} ${seed} ${Temp_aging} types ${t1} ${t2}
  fix swaprand all atom/swap 25 ${nswaps} ${seed} ${Temp_aging} types ${t1} ${t2}
  fix swaprand all atom/swap 25 150 ${seed} ${Temp_aging} types ${t1} ${t2}
  fix swaprand all atom/swap 25 150 607094 ${Temp_aging} types ${t1} ${t2}
  fix swaprand all atom/swap 25 150 607094 573.15 types ${t1} ${t2}
  fix swaprand all atom/swap 25 150 607094 573.15 types 1 ${t2}
  fix swaprand all atom/swap 25 150 607094 573.15 types 1 3
  thermo 50
  thermo_style custom step temp atoms c_eatoms v_time_tot ke etotal press vol lx ly lz f_swaprand[1] f_swaprand[2]
  run ${steps}
  run 500
Per MPI rank memory allocation (min/avg/max) = 10.52 | 10.57 | 10.62 Mbytes
   Step          Temp         Atoms       c_eatoms      v_time_tot       KinEng         TotEng         Press          Volume           Lx             Ly             Lz       f_swaprand[1]  f_swaprand[2] 
WARNING: Too many warnings: 132 vs 100. All future warnings will be suppressed (../thermo.cpp:472)
    631500   573.03037         314928  -3441729.4      1.263          23326.639     -3418402.8      16.976985      5057962.8      171.65344      171.65498      171.65906      0              0            
    631550   573.03037         314928  -3441729.6      1.2631         23326.639     -3418403        17.285564      5057962.8      171.65344      171.65498      171.65906      300            64           
    631600   573.03037         314928  -3441730        1.2632         23326.639     -3418403.4      16.565191      5057962.8      171.65344      171.65498      171.65906      600            121          
    631650   573.03037         314928  -3441730.4      1.2633         23326.639     -3418403.8      16.619229      5057962.8      171.65344      171.65498      171.65906      900            202          
    631700   573.03037         314928  -3441730.9      1.2634         23326.639     -3418404.3      16.593611      5057962.8      171.65344      171.65498      171.65906      1200           280          
    631750   573.03037         314928  -3441732.4      1.2635         23326.639     -3418405.8      15.6313        5057962.8      171.65344      171.65498      171.65906      1500           358          
    631800   573.03037         314928  -3441732.4      1.2636         23326.639     -3418405.8      15.614154      5057962.8      171.65344      171.65498      171.65906      1800           424          
    631850   573.03037         314928  -3441731.8      1.2637         23326.639     -3418405.2      15.092843      5057962.8      171.65344      171.65498      171.65906      2100           503          
    631900   573.03037         314928  -3441730.9      1.2638         23326.639     -3418404.2      16.02846       5057962.8      171.65344      171.65498      171.65906      2400           574          
    631950   573.03037         314928  -3441730.8      1.2639         23326.639     -3418404.2      15.448895      5057962.8      171.65344      171.65498      171.65906      2700           632          
    632000   573.03037         314928  -3441730.4      1.264          23326.639     -3418403.8      16.306041      5057962.8      171.65344      171.65498      171.65906      3000           701          
Loop time of 1585.34 on 240 procs for 500 steps with 314928 atoms

Performance: 0.054 ns/day, 440.372 hours/ns, 0.315 timesteps/s, 99.325 katom-step/s
94.4% CPU use with 240 MPI tasks x no OpenMP threads

MPI task timing breakdown:
Section |  min time  |  avg time  |  max time  |%varavg| %total
---------------------------------------------------------------
Pair    | 22.677     | 94.872     | 129.32     | 401.2 |  5.98
Neigh   | 0.066648   | 0.077447   | 0.14104    |   4.6 |  0.00
Comm    | 53.637     | 94.391     | 148.97     | 281.3 |  5.95
Output  | 3.4709     | 4.3231     | 5.3323     |  26.9 |  0.27
Modify  | 1349.1     | 1350.5     | 1351.6     |   1.8 | 85.19
Other   |            | 41.19      |            |       |  2.60

Nlocal:         1312.2 ave        1395 max        1220 min
Histogram: 35 13 0 44 28 34 14 0 12 60
Nghost:         3254.9 ave        3515 max        3060 min
Histogram: 72 0 0 1 89 30 0 0 19 29
Neighs:        56095.4 ave       59979 max       51047 min
Histogram: 6 20 21 10 53 32 20 7 26 45
FullNghs:      76142.8 ave       80950 max       70775 min
Histogram: 34 14 0 44 28 35 13 0 12 60

Total # of neighbors = 18274260
Ave neighs/atom = 58.026787
Neighbor list builds = 40
Dangerous builds = 0
  unfix swaprand

next swap_counter

# Re-fix NPT
print "#### Begin MD ####"
#### Begin MD ####
fix age all npt temp ${Temp_aging} ${Temp_aging} $(100*dt) aniso 0.0 0.0 $(1000*dt)
fix age all npt temp 573.15 ${Temp_aging} $(100*dt) aniso 0.0 0.0 $(1000*dt)
fix age all npt temp 573.15 573.15 $(100*dt) aniso 0.0 0.0 $(1000*dt)
fix age all npt temp 573.15 573.15 0.2000000000000000111 aniso 0.0 0.0 $(1000*dt)
fix age all npt temp 573.15 573.15 0.2000000000000000111 aniso 0.0 0.0 2
thermo 10
thermo_style custom step temp atoms c_eatoms v_time_tot ke etotal press vol lx ly lz
next loopmdmc_counter
jump SELF loop_mdmc
print "#### Begin MC ####"
#### Begin MC ####

run ${steps}
run 500
Per MPI rank memory allocation (min/avg/max) = 10.52 | 10.57 | 10.62 Mbytes
   Step          Temp         Atoms       c_eatoms      v_time_tot       KinEng         TotEng         Press          Volume           Lx             Ly             Lz      
WARNING: Too many warnings: 132 vs 100. All future warnings will be suppressed (../thermo.cpp:472)
    632000   573.03037         314928  -3441730.4      1.264          23326.639     -3418403.8      16.306041      5057962.8      171.65344      171.65498      171.65906    
    632010   572.83941         314928  -3441722.5      1.26402        23318.866     -3418403.7      32.149589      5057966.7      171.65357      171.65506      171.65898    
    632020   573.33584         314928  -3441742.5      1.26404        23339.074     -3418403.4     -0.34554293     5057979        171.65396      171.65526      171.6588     
    632030   573.45538         314928  -3441747.2      1.26406        23343.941     -3418403.2     -14.607255      5057991.8      171.65455      171.65544      171.65848    
    632040   572.8826          314928  -3441723.9      1.26408        23320.624     -3418403.2      15.143565      5058001.4      171.65524      171.65552      171.65803    
    632050   572.79157         314928  -3441720        1.2641         23316.918     -3418403.1      14.505039      5058014.9      171.65609      171.65559      171.65756    
    632060   573.36092         314928  -3441742.8      1.26412        23340.095     -3418402.7     -26.227617      5058031.6      171.65708      171.65564      171.65709    
    632070   572.96793         314928  -3441726.4      1.26414        23324.097     -3418402.3     -27.802467      5058041.3      171.65807      171.65557      171.6565     
    632080   572.26653         314928  -3441697.2      1.26416        23295.545     -3418401.7     -1.7576219      5058043.4      171.65895      171.65548      171.65577    
    632090   573.03427         314928  -3441727.3      1.26418        23326.798     -3418400.5     -18.269271      5058043.6      171.65976      171.65544      171.65501    
    632100   573.81427         314928  -3441757.6      1.2642         23358.55      -3418399       -27.662216      5058038.3      171.66041      171.65539      171.65424    
    632110   573.11945         314928  -3441728        1.26422        23330.266     -3418397.7      19.27442       5058026.2      171.66085      171.6553       171.65347    
    632120   572.55674         314928  -3441703.6      1.26424        23307.359     -3418396.2      39.520592      5058019.3      171.66119      171.65531      171.6529     
    632130   573.24414         314928  -3441729.5      1.26426        23335.341     -3418394.2     -8.9903581      5058022.5      171.66141      171.65549      171.6526     
    632140   573.51755         314928  -3441738.2      1.26428        23346.471     -3418391.7     -22.71072       5058023.9      171.66133      171.65578      171.65243    
    632150   572.70891         314928  -3441702.5      1.2643         23313.553     -3418388.9      29.733269      5058020.2      171.66093      171.65612      171.65236    
    632160   572.70547         314928  -3441698.8      1.26432        23313.413     -3418385.4      37.031587      5058024.3      171.66037      171.6566       171.65259    
    632170   573.60987         314928  -3441731        1.26434        23350.229     -3418380.8     -13.078139      5058038.2      171.65969      171.65717      171.65317    
    632180   573.66703         314928  -3441728.2      1.26436        23352.556     -3418375.7     -23.299457      5058049.3      171.65878      171.65763      171.65399    
    632190   573.22452         314928  -3441704.6      1.26438        23334.543     -3418370.1      5.7724409      5058054.3      171.65764      171.65798      171.65496    
    632200   573.53285         314928  -3441710.9      1.2644         23347.094     -3418363.8      11.363949      5058060.6      171.65641      171.65827      171.65611    
    632210   574.1306          314928  -3441728.6      1.26442        23371.427     -3418357.2     -9.5404364      5058069.5      171.65515      171.65853      171.65742    
    632220   573.55696         314928  -3441698.5      1.26444        23348.076     -3418350.5      12.765672      5058077        171.65387      171.65868      171.6588     
    632230   573.15472         314928  -3441675.3      1.26446        23331.701     -3418343.6      32.066576      5058088.4      171.65277      171.65877      171.6602     
    632240   573.99029         314928  -3441702.2      1.26448        23365.715     -3418336.5     -2.415154       5058108.1      171.652        171.65885      171.66155    
    632250   574.71131         314928  -3441724.8      1.2645         23395.066     -3418329.8     -31.570306      5058127.3      171.65157      171.65878      171.6627     
    632260   573.6799          314928  -3441676.9      1.26452        23353.08      -3418323.8      2.5135447      5058138.9      171.65139      171.65847      171.66359    
    632270   573.17757         314928  -3441650.9      1.26454        23332.632     -3418318.3      6.8978328      5058150.3      171.65157      171.65804      171.66423    
    632280   573.91956         314928  -3441675.7      1.26456        23362.836     -3418312.8     -17.803707      5058163.2      171.65218      171.65754      171.66455    
    632290   574.0478          314928  -3441675.9      1.26458        23368.056     -3418307.8     -4.0880902      5058171.9      171.65316      171.65695      171.66446    
    632300   573.66401         314928  -3441655.8      1.2646         23352.433     -3418303.4      11.638614      5058179.6      171.65447      171.65641      171.66395    
    632310   574.27584         314928  -3441676.8      1.26462        23377.339     -3418299.5     -22.910344      5058189.5      171.65605      171.656        171.66311    
    632320   574.87623         314928  -3441698.2      1.26464        23401.78      -3418296.4     -44.686636      5058192.8      171.65773      171.65559      171.66196    
    632330   574.5708          314928  -3441683.9      1.26466        23389.347     -3418294.6     -25.077098      5058183.6      171.65941      171.65505      171.66051    
    632340   574.28402         314928  -3441671.6      1.26468        23377.672     -3418293.9     -6.2469924      5058166.5      171.66107      171.65448      171.65884    
    632350   574.42851         314928  -3441677.8      1.2647         23383.554     -3418294.2     -9.50028        5058146.7      171.66269      171.65396      171.65706    
    632360   574.17803         314928  -3441668.9      1.26472        23373.358     -3418295.5      10.465945      5058124.5      171.66413      171.65358      171.65525    
    632370   573.72741         314928  -3441652.8      1.26474        23355.014     -3418297.7      52.605455      5058106.1      171.66536      171.65344      171.65353    
    632380   574.06545         314928  -3441669.5      1.26476        23368.775     -3418300.7      40.555026      5058102        171.66636      171.65366      171.65218    
    632390   574.49362         314928  -3441691        1.26478        23386.205     -3418304.8      11.893829      5058110        171.66701      171.65415      171.65131    
    632400   573.87524         314928  -3441671.2      1.2648         23361.032     -3418310.1      29.596432      5058123.3      171.66723      171.65483      171.65086    
    632410   573.68973         314928  -3441670.1      1.26482        23353.48      -3418316.6      19.556457      5058145.2      171.66711      171.65572      171.65083    
    632420   574.41397         314928  -3441707.2      1.26484        23382.962     -3418324.3     -41.323959      5058171.8      171.66657      171.6568       171.6512     
    632430   574.05017         314928  -3441701.5      1.26486        23368.153     -3418333.3     -49.928007      5058187.5      171.66546      171.65786      171.65178    
    632440   573.02177         314928  -3441669.7      1.26488        23326.289     -3418343.4     -20.569736      5058189.1      171.66383      171.65875      171.65257    
    632450   573.58952         314928  -3441703        1.2649         23349.401     -3418353.6     -51.534816      5058182.6      171.66182      171.65956      171.65354    
    632460   574.55974         314928  -3441753        1.26492        23388.896     -3418364.1     -91.572783      5058159.7      171.65941      171.66022      171.65452    
    632470   573.82109         314928  -3441733.5      1.26494        23358.828     -3418374.7     -42.432018      5058110.7      171.65657      171.66056      171.65537    
    632480   572.80977         314928  -3441702.3      1.26496        23317.659     -3418384.7      23.435228      5058048.3      171.65357      171.66067      171.65614    
    632490   573.07588         314928  -3441721.6      1.26498        23328.492     -3418393.1      19.784756      5057990.2      171.65079      171.66069      171.65692    
    632500   573.33788         314928  -3441739.3      1.265          23339.157     -3418400.1      10.676966      5057937.3      171.64838      171.66059      171.65763    
Loop time of 371.036 on 240 procs for 500 steps with 314928 atoms

Performance: 0.233 ns/day, 103.065 hours/ns, 1.348 timesteps/s, 424.390 katom-step/s
94.4% CPU use with 240 MPI tasks x no OpenMP threads

MPI task timing breakdown:
Section |  min time  |  avg time  |  max time  |%varavg| %total
---------------------------------------------------------------
Pair    | 16.921     | 101.61     | 144.88     | 448.4 | 27.39
Neigh   | 0          | 0          | 0          |   0.0 |  0.00
Comm    | 26.268     | 85.744     | 140.26     | 307.9 | 23.11
Output  | 15.567     | 15.835     | 16.033     |   1.5 |  4.27
Modify  | 111.25     | 149.63     | 213.08     | 259.9 | 40.33
Other   |            | 18.21      |            |       |  4.91

Nlocal:         1312.2 ave        1395 max        1220 min
Histogram: 35 13 0 44 28 34 14 0 12 60
Nghost:         3254.9 ave        3515 max        3060 min
Histogram: 72 0 0 1 89 30 0 0 19 29
Neighs:        56095.4 ave       59979 max       51047 min
Histogram: 6 20 21 10 53 32 20 7 26 45
FullNghs:      76142.8 ave       80950 max       70775 min
Histogram: 34 14 0 44 28 35 13 0 12 60

Total # of neighbors = 18274260
Ave neighs/atom = 58.026787
Neighbor list builds = 0
Dangerous builds = 0
